<?xml version="1.0"?>
<VTKFile type="PolyData" version="0.1" byte_order="LittleEndian" compressor="vtkZLibDataCompressor">
	<PolyData>
		<Piece NumberOfPoints="1461" NumberOfVerts="0" NumberOfLines="0" NumberOfStrips="0" NumberOfPolys="2902">
		<PointData Normals="Normals">
		<DataArray type="Float32" Name="Normals" NumberOfComponents="3" format="ascii">
			-0.864136 0.046799 0.501078
			-0.868298 0.496012 0.005585
			-0.999997 0.002357 0.000014
			-0.999999 -0.000103 0.001363
			-0.829068 -0.075574 0.554016
			-0.782903 0.337654 0.522545
			-0.511498 -0.106312 0.852683
			-0.097112 -0.280211 0.955014
			-0.868222 0.238999 -0.434822
			-0.818542 0.572937 -0.041605
			-0.854301 0.441328 -0.274589
			-0.919022 0.090240 -0.383738
			-0.760260 -0.397782 0.513590
			-0.937836 -0.272734 -0.214663
			-0.847841 0.442419 0.292285
			-0.484475 0.335467 0.807927
			-0.295826 -0.053990 0.953715
			-0.917055 0.398426 -0.016307
			-0.155474 -0.171572 0.972826
			-0.007705 -0.190998 0.981560
			0.033585 -0.531085 0.846652
			0.154463 0.005012 0.987986
			0.226584 -0.316731 0.921054
			-0.816107 0.345586 -0.463185
			-0.810980 0.572194 -0.122085
			-0.771821 0.563838 -0.293903
			-0.947104 0.260189 -0.187872
			-0.817020 -0.224263 -0.531211
			-0.936211 0.247976 -0.249032
			-0.948981 0.068194 -0.307871
			-0.898306 -0.420083 -0.128750
			-0.346279 -0.222467 0.911372
			-0.761271 -0.486196 0.429045
			-0.629405 0.658371 0.412791
			-0.706623 0.707589 -0.001526
			-0.478809 0.478413 0.736113
			-0.350543 0.064409 0.934329
			-0.615159 0.715682 0.330724
			-0.172275 -0.285621 0.942731
			0.202372 -0.134269 0.970061
			0.015428 -0.647778 0.761673
			0.079206 -0.557599 0.826323
			0.002121 -0.365020 0.930997
			-0.135278 -0.298843 0.944665
			0.122810 -0.211243 0.969688
			-0.610738 0.791213 -0.031337
			-0.622212 0.780619 -0.059036
			-0.920878 0.331570 -0.205047
			-0.638498 0.687336 -0.346250
			-0.565515 0.663527 -0.489822
			-0.605862 0.706957 -0.364889
			-0.696507 0.627143 -0.348669
			-0.975958 -0.099643 -0.193850
			-0.971517 0.216856 -0.095545
			-0.988632 0.131165 -0.073502
			-0.988333 -0.139201 -0.061808
			-0.863433 -0.315279 0.393807
			-0.958116 -0.283948 0.037253
			-0.216530 -0.300563 0.928858
			-0.643014 0.667254 0.375906
			-0.416475 0.373192 0.829021
			-0.341432 0.777939 0.527480
			-0.371789 0.887814 0.271219
			-0.319311 -0.053313 0.946149
			-0.617188 0.786736 -0.011228
			-0.108144 -0.459883 0.881370
			0.190352 -0.320517 0.927920
			0.250213 -0.187239 0.949913
			-0.023177 -0.584721 0.810903
			0.187019 -0.521066 0.832775
			-0.090415 -0.728293 0.679275
			-0.053992 -0.792291 0.607750
			0.031042 -0.248631 0.968101
			0.018377 -0.265064 0.964056
			0.136908 -0.204487 0.969248
			-0.526245 0.844129 -0.102532
			-0.459790 0.833901 -0.305291
			-0.745603 0.521702 -0.414612
			-0.932303 0.279495 -0.229549
			-0.484921 0.687333 -0.540764
			-0.438160 0.814917 -0.379377
			-0.334880 0.802508 -0.493798
			-0.679775 0.645745 -0.347734
			-0.994800 -0.061881 -0.080889
			-0.971209 0.116824 -0.207619
			-0.988854 -0.129199 -0.073989
			-0.966258 -0.256520 -0.023290
			-0.346408 -0.621726 0.702466
			-0.715824 -0.630644 0.299806
			-0.165037 0.159373 0.973326
			-0.322495 0.523434 0.788678
			-0.204784 0.967444 0.148711
			0.083389 0.750707 0.655351
			-0.212078 0.590200 0.778901
			-0.175596 0.984437 -0.007064
			-0.365646 0.926707 -0.086701
			-0.138169 -0.230910 0.963115
			0.010640 -0.501437 0.865129
			0.173060 -0.218066 0.960467
			0.171490 -0.397717 0.901339
			0.023011 -0.177086 0.983926
			0.175915 -0.304406 0.936158
			-0.027738 -0.460017 0.887477
			0.103858 -0.389775 0.915035
			-0.179626 -0.656547 0.732585
			-0.086015 -0.407689 0.909060
			0.006611 -0.260392 0.965480
			0.039083 -0.268453 0.962500
			0.086570 -0.304988 0.948413
			-0.434483 0.892889 -0.118211
			-0.229828 0.885312 -0.404230
			-0.214803 0.812704 -0.541639
			-0.703875 0.628212 -0.331525
			-0.570133 0.696550 -0.435623
			-0.818555 0.462295 -0.340957
			-0.962784 0.131061 -0.236368
			-0.530576 0.778372 -0.335599
			-0.085344 0.806603 -0.584900
			-0.068971 0.818661 -0.570121
			-0.013160 0.891981 -0.451881
			-0.718387 0.647535 -0.254202
			-0.976811 -0.040517 -0.210237
			-0.977806 -0.121115 -0.170960
			-0.958027 -0.270290 -0.095545
			-0.813880 -0.580632 -0.021584
			-0.127056 -0.555140 0.821995
			-0.557270 -0.739914 0.376798
			-0.639784 -0.764839 0.075479
			0.160478 0.193875 0.967812
			0.251428 0.965809 0.063213
			0.164425 0.984183 -0.065935
			0.523305 0.563102 0.639584
			0.750112 0.661200 0.012058
			-0.232072 0.967545 -0.099998
			0.188544 0.977973 -0.089559
			0.253894 -0.640876 0.724442
			0.229511 -0.557661 0.797708
			0.128072 -0.529957 0.838298
			0.394472 0.129018 0.909805
			0.380786 -0.031278 0.924134
			0.069165 -0.384776 0.920415
			-0.084171 -0.492162 0.866425
			0.157002 -0.387435 0.908429
			-0.022466 -0.299599 0.953801
			-0.029909 -0.218836 0.975303
			0.029163 -0.341165 0.939551
			0.058821 -0.520666 0.851732
			0.129993 0.947955 -0.290660
			0.128148 0.730101 -0.671215
			0.215484 0.790185 -0.573738
			-0.927379 0.324788 -0.185691
			-0.799280 0.562298 -0.212068
			-0.785088 0.574793 -0.230761
			-0.979523 0.004070 -0.201292
			-0.495387 0.803704 -0.329622
			0.115685 0.725529 -0.678399
			0.101395 0.812300 -0.574359
			0.090449 0.841854 -0.532072
			-0.418520 0.874386 -0.245541
			0.034848 0.956154 -0.290783
			0.041384 0.949919 -0.309745
			0.068807 0.905414 -0.418917
			-0.979881 -0.101195 -0.172025
			-0.956518 -0.249826 -0.150535
			-0.788756 -0.588115 -0.178842
			-0.678716 -0.732902 -0.046886
			-0.165663 -0.881489 0.442191
			-0.417620 -0.903871 0.092797
			0.486295 0.344593 0.802978
			0.905567 0.414719 -0.089203
			0.609970 0.788322 0.080526
			0.576100 0.556109 0.599042
			0.543274 0.802670 0.246118
			0.631304 0.775502 0.007169
			0.430885 0.839691 -0.330542
			0.228434 -0.776531 0.587211
			0.164454 -0.842100 0.513636
			0.100463 -0.678152 0.728023
			0.471024 0.370972 0.800322
			0.442058 0.419971 0.792596
			0.261141 0.048170 0.964098
			0.139332 -0.116239 0.983400
			-0.006106 -0.361266 0.932443
			-0.046643 -0.585159 0.809576
			-0.142476 -0.431712 0.890688
			-0.015513 -0.307814 0.951320
			-0.003887 -0.422748 0.906239
			-0.119308 -0.221357 0.967867
			-0.082117 -0.320884 0.943552
			-0.177335 -0.318107 0.931322
			-0.034093 -0.492054 0.869897
			0.036605 -0.579683 0.814020
			0.279681 0.809534 -0.516172
			-0.906073 0.422559 -0.021831
			-0.995301 0.021811 -0.094341
			-0.472681 0.875990 -0.095994
			-0.847816 0.523005 -0.087601
			-0.788968 0.614432 -0.001661
			0.157400 0.836076 -0.525549
			0.108370 0.880270 -0.461932
			0.068620 0.919584 -0.386854
			0.019879 0.998685 -0.047265
			0.040248 0.998966 -0.021146
			0.041561 0.968895 -0.243958
			0.025951 0.998515 -0.047899
			-0.993520 -0.075805 -0.084681
			-0.973476 -0.188131 -0.130196
			-0.720759 -0.663494 -0.200707
			-0.589166 -0.727473 -0.351663
			-0.830272 -0.523410 -0.191549
			-0.453217 -0.890742 0.034239
			0.082818 -0.932838 0.350648
			0.356192 0.934326 -0.012781
			0.604420 0.701160 0.378222
			0.459848 0.754297 0.468589
			0.231188 0.969983 0.075399
			0.567027 0.794442 0.217585
			0.423235 0.859242 -0.287358
			0.015041 -0.983278 0.181490
			0.161564 -0.881390 0.443903
			0.223816 -0.965464 0.133361
			0.133614 -0.977689 0.162087
			0.057423 -0.730738 0.680239
			0.166132 -0.855706 0.490069
			0.083920 -0.873124 0.480220
			0.310350 0.827605 0.467710
			0.275232 0.315450 0.908151
			0.131601 -0.042246 0.990402
			-0.016124 -0.218019 0.975811
			-0.091568 -0.356065 0.929964
			-0.089641 -0.356710 0.929905
			0.014934 -0.638494 0.769482
			-0.069276 -0.549040 0.832920
			-0.044513 -0.661665 0.748477
			0.435332 0.882808 -0.176455
			0.251490 0.897096 -0.363279
			-0.915824 0.401561 -0.004007
			-0.999433 0.008570 -0.032557
			-0.588681 0.808364 0.001624
			-0.082398 0.988196 0.129145
			-0.775294 0.631157 0.023662
			0.081450 0.942044 -0.325451
			0.157203 0.892746 -0.422245
			0.031028 0.944216 -0.327861
			-0.008690 0.977660 -0.210012
			0.050532 0.962022 0.268255
			0.075609 0.983533 0.164152
			-0.009310 0.995525 -0.094042
			0.053862 0.998367 0.019016
			-0.914454 -0.390213 -0.107270
			-0.845574 -0.437782 -0.305535
			-0.774032 -0.603002 -0.193036
			-0.771092 -0.605345 -0.197416
			-0.930482 -0.361044 -0.062060
			-0.540771 -0.840814 -0.024459
			0.520638 0.852871 -0.039338
			0.399415 0.901272 0.167860
			0.007379 -0.999862 0.014901
			0.233020 -0.972472 -0.000516
			0.146857 -0.988273 -0.041836
			0.067548 -0.988085 0.138293
			0.005411 -0.754834 0.655893
			0.033191 -0.858555 0.511647
			0.062703 -0.965270 0.253618
			0.202740 0.966184 0.159326
			0.167975 0.969368 0.179195
			0.030839 0.409493 0.911792
			-0.005856 0.756999 0.653389
			0.012380 0.951678 0.306848
			0.043867 0.070186 0.996569
			-0.085613 -0.133602 0.987330
			-0.108298 -0.305399 0.946046
			-0.107518 -0.360189 0.926663
			-0.106080 -0.455753 0.883763
			-0.095106 -0.572072 0.814670
			-0.081961 -0.672934 0.735147
			-0.057847 -0.760748 0.646464
			0.341106 0.939959 -0.011141
			0.291631 0.947037 -0.134435
			0.019559 0.981696 -0.189448
			-0.941759 0.333726 0.041435
			-0.999939 0.010999 0.000679
			-0.186220 0.944534 0.270514
			-0.604596 0.785604 0.131492
			-0.003941 0.933233 0.359251
			-0.782783 0.610093 0.122631
			-0.058424 0.978207 -0.199241
			-0.059723 0.971708 -0.228512
			-0.126635 0.959510 -0.251603
			-0.207181 0.959756 -0.189589
			-0.171474 0.975536 -0.137576
			0.211835 0.960040 0.182892
			0.151016 0.988373 0.017675
			-0.110067 0.988280 -0.105770
			0.003555 0.991449 -0.130446
			-0.899084 -0.417409 0.131975
			-0.823800 -0.500403 -0.266366
			-0.872220 -0.475926 0.112810
			-0.894641 -0.397948 -0.203113
			-0.940537 -0.333020 -0.066985
			-0.572736 -0.818510 -0.044897
			0.009485 -0.998218 -0.058915
			0.246896 -0.967025 -0.062492
			0.178714 -0.981626 -0.066869
			0.076897 -0.995595 -0.053649
			0.041600 -0.999015 -0.015451
			0.050671 -0.998363 0.026531
			-0.040215 -0.866489 0.497574
			-0.008702 -0.977454 0.210969
			0.123989 0.991668 -0.034956
			-0.066971 0.967057 0.245593
			-0.083113 0.994935 0.056542
			-0.171042 0.366092 0.914724
			-0.099326 0.053205 0.993632
			-0.179431 0.829488 0.528918
			-0.182138 -0.157032 0.970653
			-0.191661 -0.186164 0.963644
			-0.180550 -0.025866 0.983226
			-0.161668 -0.244399 0.956103
			-0.143123 -0.383012 0.912588
			-0.126210 -0.501624 0.855829
			-0.114917 -0.694175 0.710574
			-0.079678 -0.772647 0.629817
			-0.077688 -0.849145 0.522414
			-0.144670 0.988977 -0.031538
			-0.205430 0.975793 -0.075007
			-0.174788 0.966567 -0.187611
			-0.886864 0.444915 0.124587
			-0.992672 0.111914 0.045586
			-0.997887 0.035378 0.054500
			-0.233777 0.946057 0.224330
			0.053479 0.958300 0.280715
			-0.589741 0.795720 0.137970
			-0.761843 0.635130 0.127302
			-0.755544 0.639621 0.141559
			-0.259411 0.947614 -0.186367
			-0.535504 0.832532 -0.141866
			-0.460166 0.873922 -0.156550
			-0.302546 0.936409 -0.177773
			-0.273091 0.940077 -0.204148
			0.278929 0.957149 0.077880
			0.314233 0.949284 -0.010845
			0.271890 0.942488 -0.194402
			-0.166480 0.929576 -0.328896
			0.041403 0.941701 -0.333895
			-0.997158 -0.059580 0.046098
			-0.780474 -0.585533 0.219115
			-0.739319 -0.576688 0.347618
			-0.997831 -0.064403 -0.013592
			-0.986198 -0.146941 0.076306
			-0.776686 -0.622130 -0.098550
			-0.511308 -0.851669 -0.114999
			0.000854 -0.989711 -0.143077
			0.237331 -0.967191 -0.090635
			0.099907 -0.993625 -0.052237
			0.225522 -0.972579 -0.056832
			0.017032 -0.999599 -0.022641
			-0.027709 -0.999270 0.026303
			-0.042806 -0.956203 0.289558
			-0.086595 -0.949463 0.301697
			-0.070829 -0.995475 0.063339
			-0.054134 -0.988675 0.139973
			-0.205225 0.937852 0.279851
			-0.215912 0.967277 0.133256
			-0.260848 0.963424 0.061418
			-0.203113 0.253262 0.945835
			-0.280650 0.623700 0.729543
			-0.282002 0.863982 0.417146
			-0.204845 -0.091218 0.974535
			-0.208871 -0.168830 0.963260
			-0.247410 -0.188526 0.950393
			-0.198920 -0.243857 0.949192
			-0.259173 0.190477 0.946862
			-0.196242 -0.345675 0.917605
			-0.189504 -0.432892 0.881302
			-0.158852 -0.529213 0.833486
			-0.136560 -0.590997 0.795031
			-0.118178 -0.842673 0.525296
			-0.174173 -0.668151 0.723352
			-0.159434 -0.756665 0.634065
			-0.298166 0.954469 0.009234
			-0.416949 0.901158 -0.118606
			-0.324599 0.944678 -0.047098
			-0.901447 0.425691 0.078621
			-0.994117 0.106152 0.021527
			-0.999049 0.024520 0.036054
			-0.589466 0.800054 0.111549
			-0.142215 0.987380 0.069687
			-0.394622 0.916941 0.059096
			0.177826 0.980691 0.081380
			0.156765 0.986977 0.036057
			-0.762183 0.642555 0.078738
			-0.731078 0.678575 0.071137
			-0.329703 0.922906 -0.198848
			-0.339911 0.930504 -0.136466
			-0.338827 0.918606 -0.203368
			-0.309537 0.902749 -0.298717
			0.338835 0.940570 -0.022777
			0.410444 0.884262 -0.222746
			0.221307 0.885439 -0.408681
			0.446717 0.814385 -0.370433
			0.401512 0.790798 -0.461981
			-0.113004 0.889320 -0.443102
			-0.272714 0.863844 -0.423558
			-0.200274 0.673687 -0.711362
			-0.130736 0.750762 -0.647506
			0.140790 0.837993 -0.527205
			-0.035864 0.717019 -0.696131
			-0.996340 -0.079979 0.030162
			-0.848902 -0.401499 0.343749
			-0.542665 -0.641217 0.542544
			-0.928425 -0.322992 0.183582
			-0.729640 -0.683176 -0.029936
			-0.025744 -0.994120 -0.105179
			0.215227 -0.970293 -0.110492
			0.129436 -0.980219 -0.149722
			0.005072 -0.996834 -0.079353
			0.205817 -0.965770 -0.157886
			-0.023049 -0.999728 -0.003601
			-0.067433 -0.997667 -0.010685
			-0.074489 -0.993898 0.081352
			-0.130939 -0.902996 0.409210
			-0.120037 -0.955971 0.267788
			-0.091823 -0.992324 0.082841
			-0.333026 0.895742 0.294515
			-0.348814 0.919206 0.182729
			-0.316009 0.945696 0.076138
			-0.339810 0.731415 0.591236
			-0.344476 0.535720 0.770935
			-0.434385 0.815750 0.381918
			-0.386170 0.856363 0.342804
			-0.247459 -0.117199 0.961784
			-0.306413 -0.178967 0.934924
			-0.265457 -0.245835 0.932254
			-0.363664 0.409540 0.836675
			-0.292166 0.091460 0.951984
			-0.247047 -0.439677 0.863512
			-0.232706 -0.530779 0.814937
			-0.240764 -0.579636 0.778495
			-0.163909 -0.862065 0.479560
			-0.238045 -0.655864 0.716364
			-0.232726 -0.733653 0.638429
			-0.340050 0.940125 0.023031
			-0.344043 0.936737 -0.064480
			-0.876776 0.480897 -0.001108
			-0.996889 0.074648 -0.025302
			-0.999934 0.011214 0.002704
			-0.580318 0.814167 -0.019043
			-0.190516 0.979939 -0.058511
			0.288326 0.954462 -0.076623
			-0.383899 0.920806 -0.068833
			-0.757672 0.652359 -0.018969
			-0.701508 0.708306 -0.078675
			-0.344560 0.927138 -0.147287
			-0.584334 0.796440 -0.155681
			-0.491917 0.847448 -0.199623
			-0.351460 0.891761 -0.285023
			-0.316614 0.842313 -0.436193
			-0.363109 0.832456 -0.418532
			0.532055 0.779970 -0.329492
			0.410353 0.548489 -0.728540
			0.492049 0.508786 -0.706417
			-0.312734 0.787177 -0.531554
			-0.305906 0.689404 -0.656615
			0.035428 0.425355 -0.904333
			-0.155055 0.398242 -0.904080
			-0.276676 0.610760 -0.741905
			-0.275929 0.486702 -0.828845
			-0.213439 0.343271 -0.914663
			0.206955 0.587083 -0.782626
			-0.998365 -0.056349 -0.009608
			-0.994620 -0.102577 0.014461
			-0.854897 -0.517916 0.030233
			-0.745207 -0.641848 0.180826
			-0.597555 -0.788752 -0.144218
			0.022342 -0.987329 -0.157109
			0.268181 -0.902108 -0.338053
			0.152273 -0.929917 -0.334766
			0.030711 -0.970687 -0.238376
			-0.021064 -0.995002 -0.097608
			-0.075194 -0.996405 -0.039022
			-0.061165 -0.991344 -0.116168
			-0.110607 -0.991520 0.068228
			-0.139629 -0.961946 0.234871
			-0.088473 -0.995244 -0.040765
			-0.401578 0.852879 0.333666
			-0.371225 0.925509 0.074995
			-0.434851 0.877595 0.201821
			-0.441445 0.893491 0.082463
			-0.351515 0.935764 0.027984
			-0.442060 0.732868 0.517192
			-0.526662 0.792487 0.307559
			-0.475219 0.814119 0.333732
			-0.447864 0.833696 0.323061
			-0.306612 -0.179484 0.934759
			-0.363081 -0.206227 0.908649
			-0.336140 -0.032473 0.941252
			-0.388120 -0.185368 0.902775
			-0.365111 -0.329919 0.870544
			-0.431550 0.231715 0.871822
			-0.441390 0.668339 0.598746
			-0.341542 -0.418154 0.841722
			-0.297278 -0.523697 0.798353
			-0.277659 -0.625426 0.729210
			-0.201432 -0.898409 0.390239
			-0.225888 -0.813824 0.535410
			-0.135167 -0.695930 0.705274
			-0.280380 -0.765012 0.579779
			-0.339138 0.939121 -0.055119
			-0.469809 0.874814 -0.118239
			-0.851942 0.488256 -0.189212
			-0.996745 0.022581 -0.077387
			-0.998200 -0.009472 -0.059216
			-0.490806 0.809087 -0.323246
			-0.183645 0.919558 -0.347400
			0.517191 0.833354 -0.195025
			-0.758924 0.602677 -0.246608
			-0.699559 0.674178 -0.236856
			-0.353116 0.925804 -0.134890
			-0.395336 0.875730 -0.277140
			-0.376576 0.901362 -0.213860
			-0.383565 0.696782 -0.606113
			-0.416060 0.839881 -0.348562
			-0.413241 0.700647 -0.581658
			0.627763 0.526265 -0.573549
			0.655540 0.491383 -0.573419
			0.298953 0.363896 -0.882160
			0.543444 0.103049 -0.833096
			0.607848 0.291745 -0.738516
			-0.366608 0.562993 -0.740700
			-0.324587 0.564216 -0.759146
			0.203047 0.197137 -0.959119
			0.091826 0.104417 -0.990285
			-0.136690 0.109000 -0.984599
			-0.271138 0.268005 -0.924477
			-0.319499 0.460397 -0.828224
			-0.231668 0.029609 -0.972344
			-0.996771 -0.052207 -0.061010
			-0.994803 -0.091172 -0.045321
			-0.485033 -0.761411 -0.430112
			-0.445881 -0.861912 -0.241449
			-0.261965 -0.856458 -0.444808
			0.177117 -0.849415 -0.497115
			0.334592 -0.745851 -0.575981
			0.116403 -0.832768 -0.541246
			0.267381 -0.780678 -0.564844
			0.042441 -0.918914 -0.392167
			0.001761 -0.965744 -0.259490
			-0.071802 -0.983457 -0.166304
			-0.090117 -0.977868 -0.188823
			-0.038816 -0.958104 -0.283778
			-0.097224 -0.993022 -0.066739
			-0.120190 -0.991910 0.040863
			-0.169878 -0.973176 0.155143
			-0.406579 0.912237 -0.050169
			-0.470304 0.864423 0.177726
			-0.440004 0.894988 0.073437
			-0.397813 0.912893 -0.091493
			-0.362714 0.927809 -0.087232
			-0.413401 0.780450 0.469039
			-0.447605 0.776726 0.443110
			-0.431184 0.841650 0.325126
			-0.463585 0.776664 0.426475
			-0.443391 0.853592 0.273469
			-0.414853 0.865699 0.280112
			-0.446458 0.872294 0.199447
			-0.358529 -0.118170 0.926009
			-0.381502 -0.174224 0.907801
			-0.391768 -0.124978 0.911536
			-0.394174 -0.157449 0.905448
			-0.401360 -0.424873 0.811414
			-0.414097 -0.393260 0.820896
			-0.360278 -0.109064 0.926447
			-0.387146 -0.309950 0.868360
			-0.432563 -0.353399 0.829456
			-0.479663 0.613342 0.627483
			-0.420734 0.432324 0.797546
			-0.425579 0.027701 0.904497
			-0.452063 0.767222 0.454983
			-0.438428 -0.481246 0.759067
			-0.476594 -0.574260 0.665645
			-0.384075 -0.734213 0.559838
			-0.118634 -0.709959 0.694178
			-0.289628 -0.821215 0.491651
			-0.306443 -0.892531 0.330880
			-0.270799 -0.942552 0.195609
			-0.320941 -0.653063 0.685934
			-0.224945 -0.628097 0.744912
			-0.336595 0.932464 -0.131204
			-0.838923 0.120561 -0.530729
			-0.641138 0.426703 -0.637861
			-0.995867 -0.025152 -0.087275
			-0.863058 -0.101013 -0.494901
			-0.493214 0.674037 -0.549922
			-0.228507 0.712049 -0.663905
			-0.264949 0.715634 -0.646274
			0.423178 0.826074 -0.372185
			0.451894 0.680418 -0.576909
			0.843927 0.287237 -0.453081
			-0.356491 0.928643 -0.102645
			-0.380733 0.915900 -0.127161
			-0.355911 0.913828 -0.195567
			-0.397797 0.628795 -0.668112
			-0.447950 0.703216 -0.552111
			-0.362401 0.890711 -0.274407
			-0.354568 0.813810 -0.460428
			-0.400630 0.575974 -0.712565
			-0.390215 0.573692 -0.720145
			0.696074 0.223899 -0.682166
			0.715655 0.168595 -0.677800
			0.553517 0.146437 -0.819863
			0.313071 0.150897 -0.937666
			0.311985 -0.178381 -0.933191
			0.425409 -0.390954 -0.816200
			0.667434 -0.071196 -0.741258
			0.465668 -0.544756 -0.697420
			-0.354997 0.472798 -0.806499
			0.215330 -0.110421 -0.970278
			0.088684 -0.190028 -0.977765
			-0.092743 -0.207831 -0.973758
			-0.191446 -0.194855 -0.961967
			-0.342749 0.241560 -0.907839
			-0.354839 0.015812 -0.934794
			-0.363077 0.495308 -0.789206
			-0.375414 0.463366 -0.802718
			-0.386091 0.229010 -0.893582
			-0.243182 -0.372527 -0.895592
			-0.534678 -0.587304 -0.607614
			-0.496077 -0.602967 -0.624770
			0.409482 -0.487862 -0.770918
			0.192854 -0.692031 -0.695630
			0.284199 -0.733251 -0.617717
			0.299287 -0.685953 -0.663246
			0.258064 -0.708570 -0.656759
			0.054471 -0.871379 -0.487577
			0.177923 -0.723321 -0.667195
			0.040532 -0.784065 -0.619354
			0.050075 -0.802256 -0.594877
			0.023324 -0.909927 -0.414111
			0.051204 -0.872619 -0.485711
			0.053398 -0.862328 -0.503527
			-0.050954 -0.963599 -0.262452
			-0.072668 -0.969924 -0.232306
			-0.051931 -0.949932 -0.308109
			-0.029451 -0.936256 -0.350082
			0.002559 -0.890044 -0.455867
			-0.104859 -0.989814 -0.096299
			-0.148109 -0.988905 0.011412
			-0.225296 -0.974286 -0.002992
			-0.356584 0.924523 -0.134557
			-0.354015 0.916191 -0.187795
			-0.420675 0.897145 0.134769
			-0.378362 0.925202 -0.029049
			-0.307109 0.937635 -0.162864
			-0.454811 0.792909 0.405515
			-0.477591 0.780677 0.403052
			-0.435840 0.829373 0.349548
			-0.363346 0.922115 0.132980
			-0.381159 0.918661 0.103830
			-0.333048 0.942806 -0.013985
			-0.415162 -0.128801 0.900583
			-0.403742 -0.119042 0.907095
			-0.457252 -0.320005 0.829770
			-0.259305 -0.097199 0.960892
			0.198521 -0.126289 0.971926
			0.553249 -0.019154 0.832796
			-0.417525 -0.307611 0.855013
			-0.438053 0.695370 0.569711
			-0.440328 0.426552 0.790041
			-0.348954 0.655854 0.669393
			-0.420951 0.716438 0.556342
			-0.433901 0.075679 0.897777
			-0.384098 0.784086 0.487521
			-0.548048 -0.451552 0.704091
			0.028918 -0.404745 0.913972
			-0.560539 -0.538152 0.629435
			-0.677946 -0.533925 0.505286
			-0.512683 -0.532992 0.673109
			-0.164950 -0.830532 0.531986
			-0.350987 -0.879553 0.321240
			0.027614 -0.896896 0.441378
			-0.156583 -0.953409 0.257862
			-0.279297 -0.957515 0.071826
			-0.512945 -0.007865 -0.858386
			-0.370628 0.594838 -0.713304
			-0.339956 0.273662 -0.899744
			-0.332953 -0.071924 -0.940196
			-0.463404 -0.341049 -0.817889
			-0.186052 0.575695 -0.796216
			0.489317 0.515546 -0.703407
			0.539400 0.175516 -0.823554
			-0.322177 0.935824 -0.142951
			-0.324085 0.942010 -0.087103
			-0.279312 0.954641 -0.103178
			-0.321657 0.907617 -0.269755
			-0.317636 0.902289 -0.291516
			-0.406637 0.678889 -0.611356
			-0.309478 0.852378 -0.421515
			-0.324706 0.779876 -0.535126
			-0.368811 0.653671 -0.660828
			-0.407263 0.456954 -0.790778
			0.696238 -0.041375 -0.716617
			0.559268 -0.124282 -0.819618
			0.192158 -0.621974 -0.759094
			0.189409 -0.461642 -0.866609
			0.072048 -0.803890 -0.590399
			0.304993 -0.692581 -0.653690
			-0.000599 -0.974486 -0.224449
			0.142038 -0.447813 -0.882774
			-0.019683 -0.487091 -0.873129
			-0.140874 -0.493386 -0.858327
			-0.381881 -0.113697 -0.917191
			-0.396576 0.500330 -0.769673
			-0.409367 0.258510 -0.874981
			-0.379488 0.445232 -0.811022
			-0.446207 0.231956 -0.864347
			-0.429541 -0.025758 -0.902680
			-0.134699 -0.662812 -0.736571
			-0.293553 -0.441975 -0.847635
			-0.203365 -0.642720 -0.738616
			-0.164000 -0.668600 -0.725313
			0.025319 -0.873116 -0.486855
			0.268637 -0.924523 -0.270355
			0.376670 -0.691997 -0.615841
			0.451924 -0.371513 -0.811013
			0.446268 -0.426303 -0.786836
			0.312135 -0.574246 -0.756844
			0.078324 -0.563079 -0.822683
			0.007407 -0.719194 -0.694770
			0.046455 -0.738668 -0.672466
			0.095453 -0.777679 -0.621373
			0.120169 -0.674080 -0.728818
			0.029122 -0.852338 -0.522180
			0.063017 -0.790227 -0.609565
			-0.088931 -0.958709 -0.270126
			-0.060405 -0.918757 -0.390175
			-0.032950 -0.914278 -0.403745
			-0.004130 -0.875499 -0.483202
			0.009361 -0.836736 -0.547527
			-0.148100 -0.982428 -0.113582
			-0.200481 -0.963084 -0.179656
			-0.231733 -0.957140 -0.173731
			-0.258119 -0.965686 -0.028729
			-0.283169 0.937760 -0.201049
			-0.345724 0.936794 -0.053772
			-0.299391 0.935304 -0.188603
			-0.330905 0.884373 0.329221
			-0.294826 0.951434 -0.088607
			-0.195650 0.976116 0.094442
			-0.192880 0.974990 -0.110417
			-0.249215 0.959040 -0.134661
			-0.139897 0.978706 -0.150208
			-0.254293 -0.125185 0.958991
			-0.247261 -0.035621 0.968294
			0.439953 -0.225754 0.869182
			0.522531 -0.109204 0.845598
			0.969797 0.025244 0.242603
			0.927505 0.058138 0.369263
			0.971199 -0.078420 0.224993
			-0.281536 0.313940 0.906741
			-0.346366 0.586473 0.732175
			-0.344226 0.757045 0.555329
			-0.380955 0.626450 0.680025
			-0.347424 0.785646 0.511915
			-0.301437 0.774951 0.555506
			-0.293754 0.791898 0.535356
			-0.038015 -0.332572 0.942311
			0.854091 -0.016613 0.519858
			0.887256 0.155287 0.434354
			-0.208298 -0.537262 0.817289
			-0.208397 -0.618543 0.757611
			-0.575465 -0.550098 0.605171
			-0.347615 -0.597857 0.722310
			-0.442847 -0.680709 0.583542
			-0.365772 -0.780595 0.506837
			-0.294945 -0.890046 0.347601
			-0.280002 -0.947904 0.151910
			-0.257981 -0.965901 0.021905
			-0.258664 -0.346080 -0.901843
			-0.169393 0.264103 -0.949503
			-0.094414 -0.227248 -0.969249
			0.032923 -0.618635 -0.784988
			0.493611 -0.348710 -0.796712
			-0.295420 0.937111 -0.185877
			-0.269346 0.957950 -0.098921
			-0.250441 0.960328 -0.122680
			-0.175506 0.983088 -0.052296
			-0.213898 0.974363 -0.069740
			-0.263211 0.944528 -0.196436
			-0.279018 0.871839 -0.402549
			-0.283155 0.822326 -0.493562
			-0.404548 0.613387 -0.678304
			-0.290771 0.738974 -0.607757
			-0.378768 0.594800 -0.709047
			-0.383097 0.475562 -0.791882
			-0.306802 0.565656 -0.765445
			-0.388700 0.424505 -0.817746
			-0.386099 0.420266 -0.821160
			-0.090527 -0.795763 -0.598804
			0.003436 -0.758428 -0.651747
			0.100938 -0.675898 -0.730051
			-0.107864 -0.891049 -0.440904
			0.094699 -0.975560 -0.198281
			0.142598 -0.976203 -0.163382
			0.086333 -0.657081 -0.748860
			0.019592 -0.638356 -0.769491
			-0.067843 -0.617210 -0.783868
			-0.345205 -0.496138 -0.796668
			-0.391938 0.261473 -0.882052
			-0.372193 0.376722 -0.848265
			-0.464965 -0.102961 -0.879321
			-0.444545 -0.019944 -0.895534
			-0.113312 -0.789070 -0.603762
			-0.040351 -0.679745 -0.732338
			-0.069982 -0.743742 -0.664794
			-0.123310 -0.788512 -0.602531
			-0.136283 -0.745096 -0.652885
			-0.193673 -0.749765 -0.632726
			0.160784 -0.886080 -0.434753
			0.234002 -0.645086 -0.727398
			0.199501 -0.542021 -0.816341
			0.453142 -0.349796 -0.819942
			0.304015 -0.370947 -0.877482
			-0.079888 -0.673720 -0.734656
			0.152474 -0.723382 -0.673402
			0.015340 -0.781884 -0.623236
			0.024354 -0.719460 -0.694107
			-0.126248 -0.952653 -0.276612
			-0.102528 -0.901409 -0.420654
			-0.087267 -0.893993 -0.439500
			-0.016898 -0.860715 -0.508806
			-0.057524 -0.857089 -0.511947
			-0.001453 -0.825691 -0.564121
			-0.166399 -0.933670 -0.317130
			-0.208466 -0.926899 -0.312089
			-0.208450 -0.908293 -0.362703
			-0.274340 -0.957802 -0.085746
			-0.258288 -0.943860 -0.205949
			-0.265018 0.946235 -0.185487
			-0.250107 0.942064 -0.223521
			-0.259370 0.950237 -0.172559
			-0.268590 0.940095 -0.209954
			-0.168851 0.954608 0.245384
			0.000479 0.993240 0.116081
			-0.014570 0.993980 -0.108591
			-0.019706 0.974802 -0.222200
			-0.247234 0.944828 -0.214886
			-0.133899 0.975147 -0.176520
			0.020711 0.992375 -0.121501
			0.396160 -0.165173 0.903203
			0.159991 -0.093384 0.982691
			0.939997 -0.234891 0.247449
			0.969598 -0.076306 0.232500
			0.966844 0.074810 0.244164
			0.947443 0.151428 0.281818
			0.972289 -0.139641 0.187494
			-0.178757 0.350643 0.919291
			-0.013483 0.174324 0.984596
			-0.446013 0.614120 0.651099
			0.102061 0.598059 0.794927
			-0.491251 0.681574 0.542336
			-0.406682 0.787555 0.462999
			-0.335297 0.799465 0.498429
			-0.264607 0.672982 0.690708
			-0.204037 0.948224 0.243393
			0.652699 0.122351 0.747673
			0.943331 0.176560 0.280985
			0.985590 0.139356 0.095875
			0.919734 0.378118 0.105428
			0.183427 -0.437240 0.880441
			-0.024028 -0.690732 0.722711
			-0.156059 -0.882977 0.442715
			-0.173798 -0.937865 0.300339
			-0.230170 -0.957491 0.173878
			-0.248472 -0.966807 -0.059556
			-0.146283 -0.977427 0.152442
			-0.139661 -0.990132 0.011543
			-0.191510 0.972040 -0.135879
			-0.201877 0.973811 -0.104587
			-0.221050 0.955771 -0.194008
			-0.188936 0.967893 -0.165791
			-0.162455 0.886887 -0.432482
			-0.150509 0.851249 -0.502715
			-0.047397 0.760874 -0.647166
			0.106101 0.600075 -0.792876
			-0.396022 0.331148 -0.856451
			0.054356 0.382002 -0.922562
			0.169289 0.532355 -0.829421
			-0.078070 -0.720083 -0.689482
			-0.001753 -0.702506 -0.711676
			-0.316783 -0.595098 -0.738584
			-0.270388 -0.748306 -0.605746
			-0.407577 0.346151 -0.845021
			-0.365205 0.177987 -0.913754
			-0.300802 -0.123462 -0.945661
			-0.124549 -0.775391 -0.619077
			-0.057948 -0.784709 -0.617150
			-0.087216 -0.782617 -0.616363
			-0.135979 -0.780769 -0.609844
			-0.142426 -0.809937 -0.568962
			-0.107766 -0.794353 -0.597821
			-0.013200 -0.777990 -0.628139
			-0.151490 -0.789841 -0.594308
			-0.214378 -0.799589 -0.560980
			-0.237365 -0.796199 -0.556530
			-0.155225 -0.895377 -0.417378
			-0.152122 -0.836728 -0.526065
			-0.091044 -0.837541 -0.538735
			-0.036315 -0.821448 -0.569125
			-0.080462 -0.810776 -0.579800
			-0.194658 -0.880564 -0.432107
			-0.252007 -0.914787 -0.315685
			-0.239535 -0.865938 -0.439061
			-0.256410 -0.952677 -0.163282
			-0.193609 0.941390 -0.276225
			-0.196732 0.950083 -0.242155
			-0.160105 0.973624 -0.162552
			0.044849 0.985629 0.162861
			0.226075 0.958475 0.173824
			0.148866 0.983555 -0.102265
			0.129840 0.962483 -0.238260
			0.137108 0.981809 -0.131351
			-0.042857 0.978747 -0.200544
			-0.117087 0.967368 -0.224701
			0.171991 0.975920 -0.134158
			0.780366 -0.523795 0.341566
			0.608154 -0.213693 0.764516
			0.967750 -0.240198 -0.075923
			0.978655 -0.064862 0.195008
			0.977178 -0.075321 0.198621
			0.983316 0.061460 0.171207
			0.979599 0.153908 0.129223
			0.943102 -0.208565 0.258958