<?xml version="1.0"?>
<VTKFile type="PolyData" version="0.1" byte_order="LittleEndian" compressor="vtkZLibDataCompressor">
	<PolyData>
		<Piece NumberOfPoints="1961" NumberOfVerts="0" NumberOfLines="0" NumberOfStrips="0" NumberOfPolys="3888">
		<PointData Normals="Normals">
		<DataArray type="Float32" Name="Normals" NumberOfComponents="3" format="ascii">
			-0.127569 0.420492 0.898283
			-0.543153 0.439442 0.715455
			-0.764689 0.003260 0.644392
			-0.765187 0.000244 0.643808
			-0.083117 0.273435 0.958293
			0.228399 0.477287 0.848546
			0.359322 0.466914 0.808009
			-0.158779 0.736794 0.657209
			0.219257 0.599500 0.769757
			-0.726383 0.476784 0.495020
			-0.767544 0.001874 0.640994
			-0.933617 -0.019494 0.357743
			-0.215803 -0.105853 0.970682
			-0.766017 -0.000747 0.642820
			0.455322 0.146174 0.878245
			0.023063 0.693663 0.719930
			0.012085 0.468902 0.883167
			0.165376 0.696708 0.698032
			-0.016452 0.813598 0.581195
			0.052145 0.470184 0.881027
			-0.310842 0.722908 0.617075
			-0.571530 0.662148 0.484679
			0.297656 0.223250 0.928203
			-0.981820 0.065761 0.178058
			-0.889948 0.317454 0.327438
			-0.942429 -0.005739 0.334357
			-0.989204 0.064515 0.131584
			-0.991967 0.020018 0.124901
			-0.515999 -0.525766 0.676251
			0.561589 0.167572 0.810270
			0.512797 -0.500730 0.697358
			-0.083857 -0.596634 0.798120
			0.551469 -0.322984 0.769131
			0.780362 -0.374958 0.500441
			0.208027 0.611163 0.763678
			0.257694 0.654183 0.711082
			0.090966 0.859849 0.502380
			0.165818 0.711768 0.682562
			-0.053392 0.841320 0.537894
			-0.007135 0.841641 0.539991
			-0.557442 0.489622 0.670469
			-0.224161 0.736780 0.637892
			0.481674 0.452999 0.750188
			0.782366 -0.020643 0.622477
			0.709486 -0.559268 0.428776
			-0.757091 0.157584 0.634020
			-0.833013 0.036338 0.552059
			-0.755162 -0.655435 0.011641
			-0.969506 -0.240467 -0.047255
			-0.883793 0.010034 0.467771
			-0.915895 -0.135680 0.377793
			0.211272 -0.906234 0.366202
			0.141090 -0.989239 -0.038726
			0.654775 -0.747293 -0.113236
			0.639337 -0.768328 -0.030322
			0.550444 -0.834817 0.009577
			0.187574 0.605120 0.773722
			0.041883 0.727139 0.685211
			0.027224 0.704116 0.709563
			0.063243 0.770169 0.634697
			0.150945 0.464395 0.872670
			0.143555 0.513877 0.845767
			0.058236 0.732578 0.678188
			-0.408375 0.606782 0.681943
			-0.070193 0.727349 0.682668
			0.509791 0.353005 0.784538
			0.752730 -0.100865 0.650556
			0.837512 -0.455866 0.301263
			0.644019 -0.765009 -0.000342
			0.651173 -0.740291 -0.167160
			-0.803192 0.496188 0.329666
			-0.862615 0.064401 0.501745
			-0.867265 -0.010439 0.497737
			-0.704959 -0.635040 -0.315844
			-0.527892 -0.782704 -0.329703
			-0.207485 -0.959247 -0.191822
			-0.831036 -0.533470 0.157444
			-0.734838 -0.606575 -0.303446
			-0.888406 -0.042881 0.457051
			-0.844051 -0.238452 0.480331
			0.620453 -0.771224 -0.142308
			0.448093 -0.879681 -0.159295
			0.594546 -0.798960 -0.090436
			0.589356 -0.790864 -0.164906
			0.495256 -0.868638 0.013754
			-0.119786 0.550339 0.826304
			-0.024722 0.661891 0.749192
			-0.173792 0.582125 0.794309
			0.031686 0.679752 0.732757
			0.745923 -0.136511 0.651892
			-0.014829 0.591591 0.806102
			0.384554 0.320521 0.865670
			0.571701 0.041650 0.819404
			0.035536 0.561774 0.826527
			0.040447 0.655574 0.754046
			0.124320 0.663880 0.737433
			-0.311677 0.743651 0.591473
			-0.234928 0.678232 0.696283
			0.834793 -0.508708 0.210562
			0.624680 -0.762836 -0.166903
			0.646187 -0.752292 -0.128448
			0.479868 -0.847759 -0.225900
			0.628054 -0.701815 -0.336162
			-0.981787 0.146147 -0.121393
			-0.917203 0.097830 -0.386223
			-0.556784 0.727683 0.400585
			-0.852643 0.485652 -0.192720
			-0.937386 -0.148054 -0.315257
			-0.966305 -0.087481 -0.242076
			-0.523824 -0.741791 -0.418754
			-0.193259 -0.900527 -0.389489
			-0.733572 -0.651600 0.193103
			-0.651183 -0.751530 -0.105661
			-0.609414 -0.792825 -0.006617
			-0.924199 -0.340929 -0.172119
			0.530119 -0.831839 -0.164369
			0.347591 -0.856755 -0.380987
			0.623979 -0.781440 0.001604
			0.676281 -0.701597 -0.224511
			-0.174250 0.649987 0.739699
			-0.116708 0.644552 0.755601
			-0.182297 0.728147 0.660735
			0.107239 0.647348 0.754612
			-0.117872 0.754107 0.646087
			-0.019534 0.688391 0.725077
			0.764276 -0.609184 0.211607
			0.723343 -0.276083 0.632893
			0.810707 -0.496228 0.310663
			0.013566 0.677330 0.735554
			-0.097770 0.745474 0.659325
			0.089248 0.568932 0.817527
			0.349374 0.306735 0.885354
			0.538879 -0.005378 0.842366
			0.151447 0.607118 0.780046
			0.073618 0.622733 0.778963
			0.112866 0.675796 0.728396
			-0.200296 0.765127 0.611933
			-0.475380 0.809170 0.345339
			0.704564 -0.709417 0.017814
			0.623498 -0.779897 0.054873
			0.554505 -0.829705 -0.064133
			0.569871 -0.821203 -0.029543
			0.542957 -0.838017 0.054078
			0.783538 -0.609133 -0.122578
			-0.806791 -0.067454 -0.586974
			-0.815628 -0.025294 -0.578024
			-0.789380 -0.117621 -0.602531
			-0.452517 0.849332 0.271779
			-0.788733 -0.083452 -0.609046
			-0.645972 0.761441 0.054112
			-0.866827 0.293724 -0.402912
			-0.760979 0.082953 -0.643451
			-0.714401 -0.225681 -0.662344
			-0.698669 -0.292437 -0.652949
			-0.694070 -0.209289 -0.688814
			-0.655946 -0.071173 -0.751444
			-0.333978 -0.922934 -0.191447
			0.092893 -0.844445 -0.527527
			0.085544 -0.844026 -0.529436
			-0.502150 -0.595578 -0.627002
			-0.235689 -0.911468 -0.337159
			0.320605 -0.882414 -0.344323
			0.527106 -0.836883 -0.147600
			0.720231 -0.672528 0.170220
			-0.103896 0.808639 0.579058
			-0.044989 0.734982 0.676593
			-0.006500 0.838781 0.544429
			-0.004110 0.770450 0.637488
			-0.055503 0.791539 0.608593
			0.761750 -0.644721 0.063812
			0.771457 -0.633737 0.056849
			0.742414 -0.642303 0.190444
			0.656273 -0.295332 0.694323
			0.591862 -0.738139 0.323805
			-0.101927 0.776830 0.621407
			-0.053629 0.791325 0.609039
			-0.120209 0.900070 0.418836
			-0.115991 0.856452 0.503027
			0.036356 0.579356 0.814263
			0.443237 0.424404 0.789571
			0.657534 0.003618 0.753416
			0.062908 0.656637 0.751579
			-0.132307 0.830046 0.541773
			-0.094099 0.823523 0.559423
			0.656272 -0.739613 0.149264
			0.585359 -0.810755 -0.005560
			0.714318 -0.682722 0.153758
			0.494719 -0.866763 -0.063049
			0.529412 -0.844942 -0.076139
			0.522194 -0.849016 -0.080526
			0.598343 -0.801156 -0.011636
			-0.744301 -0.202139 -0.636519
			-0.333528 0.864739 0.375479
			-0.564083 0.809250 0.164087
			-0.861341 0.070258 -0.503145
			-0.843267 -0.187363 -0.503782
			-0.841248 0.535304 0.075840
			-0.900946 -0.290490 -0.322353
			-0.824933 0.018132 -0.564940
			-0.725758 -0.241489 -0.644172
			-0.727307 -0.259248 -0.635465
			-0.533664 -0.422152 -0.732796
			-0.006483 -0.818869 -0.573944
			0.029105 -0.833596 -0.551607
			-0.026745 -0.805353 -0.592192
			0.138485 -0.920754 -0.364738
			0.115846 0.921782 0.369996
			-0.129498 0.962619 0.237895
			-0.042466 0.941522 0.334265
			-0.359778 0.859990 0.361907
			-0.427417 0.839527 0.335424
			0.366338 0.830582 0.419440
			0.111959 0.894007 0.433841
			-0.326309 0.868315 0.373566
			0.778858 -0.613015 -0.132637
			0.793295 -0.608362 -0.024072
			0.411817 -0.817234 -0.403157
			0.450449 -0.891547 -0.047334
			0.553991 -0.805269 0.211270
			0.748085 -0.656851 0.094417
			-0.164189 0.931676 0.324072
			-0.002057 0.864589 0.502475
			0.363503 0.682564 0.634013
			0.745654 0.241943 0.620857
			0.831530 -0.152284 0.534197
			0.424700 -0.883717 -0.196657
			0.262344 -0.925222 -0.274115
			0.478350 -0.874498 -0.080214
			0.511236 -0.856284 -0.073591
			0.481812 -0.849718 -0.214093
			-0.796617 -0.310821 -0.518451
			-0.471790 0.846120 0.247981
			-0.963296 -0.126312 -0.236866
			-0.913788 -0.061560 -0.401499
			-0.833020 -0.237502 -0.499671
			-0.489342 0.838242 0.240614
			-0.445251 0.786111 0.428697
			-0.958682 -0.234174 -0.161529
			-0.519088 0.762448 0.386291
			-0.838504 0.503370 -0.208638
			-0.968912 0.038822 -0.244340
			-0.594964 -0.570686 -0.565982
			-0.147021 -0.832049 -0.534864
			-0.101200 0.974754 0.199028
			0.214725 0.906817 0.362734
			-0.370737 0.871224 0.321750
			-0.304134 0.871394 0.384934
			0.329997 0.764801 0.553337
			-0.007541 0.899614 0.436622
			-0.406174 0.811229 0.420631
			0.932173 -0.253700 -0.258243
			0.757006 -0.652847 0.027076
			0.959907 -0.057228 0.274415
			0.427337 -0.873334 -0.233820
			0.889845 -0.270233 -0.367627
			0.364728 -0.922330 -0.127597
			0.278626 -0.960086 0.024553
			0.908923 -0.392424 0.140931
			0.767845 -0.635572 0.080389
			-0.191617 0.871735 0.450956
			0.922711 0.084816 0.376045
			-0.150045 0.882343 0.446045
			-0.252516 0.840530 0.479318
			-0.135519 0.820849 0.554834
			0.377915 0.536575 0.754499
			0.771514 0.232874 0.592060
			0.911666 -0.189010 0.364885
			0.051224 -0.944537 -0.324386
			0.289005 -0.861432 -0.417626
			0.687298 -0.725798 0.028957
			0.201415 -0.808315 -0.553226
			0.195380 -0.879802 -0.433330
			-0.759418 -0.312966 -0.570383
			-0.716022 -0.392221 -0.577473
			-0.562517 -0.602156 -0.566554
			-0.693008 -0.553352 -0.462104
			-0.758025 -0.211566 -0.616958
			-0.842855 -0.082406 -0.531793
			-0.809311 -0.310724 -0.498464
			-0.452554 0.805031 0.383562
			-0.841608 -0.157982 -0.516466
			-0.434602 0.867025 0.243699
			-0.803884 0.002108 -0.594782
			-0.642453 0.766010 0.021976
			-0.750761 0.434104 -0.497907
			-0.741283 0.039935 -0.670003
			-0.581922 -0.213753 -0.784650
			-0.224521 -0.903907 -0.364063
			-0.047927 0.819246 0.571435
			-0.419880 0.844457 0.332556
			-0.317489 0.842154 0.435863
			0.249867 0.770681 0.586189
			0.064597 0.757012 0.650201
			0.188173 0.757265 0.625412
			-0.222380 0.876145 0.427688
			0.957062 -0.218107 0.190951
			0.849744 -0.370087 0.375461
			0.874886 -0.250346 0.414610
			0.518903 -0.840566 0.155525
			0.563789 -0.714464 0.414347
			0.523634 -0.779306 0.344223
			0.536053 -0.790893 0.295187
			0.871115 -0.462033 0.166385
			0.643285 -0.705122 0.298309
			-0.304571 0.889263 0.341245
			-0.384062 0.773168 0.504686
			-0.020914 0.764152 0.644697
			-0.214077 0.765066 0.607326
			0.374803 0.372423 0.849013
			0.647675 -0.058890 0.759638
			-0.059092 0.680351 0.730501
			0.816554 -0.187521 0.545963
			0.078147 -0.761282 -0.643695
			0.258133 -0.722708 -0.641140
			0.622974 -0.604288 0.496729
			0.619062 -0.739082 0.265554
			0.490020 -0.870263 -0.050232
			0.310546 -0.921729 -0.232329
			0.139483 -0.832151 -0.536721
			0.137620 -0.833222 -0.535538
			-0.036068 -0.857908 -0.512535
			0.014047 -0.920927 -0.389482
			-0.321277 -0.593343 -0.738055
			-0.609660 -0.302351 -0.732734
			-0.526254 -0.208799 -0.824294
			-0.401883 -0.377324 -0.834336
			-0.536189 0.079438 -0.840351
			-0.301452 0.913242 0.274074
			-0.486666 0.871525 0.060007
			-0.602086 0.664809 -0.442178
			-0.681442 0.241730 -0.690799
			-0.651164 -0.233558 -0.722106
			-0.235569 -0.498107 -0.834504
			-0.438461 -0.590990 -0.677114
			-0.323339 0.866307 0.380741
			-0.177189 0.802537 0.569683
			-0.015425 0.712005 0.702005
			0.073864 0.789281 0.609574
			0.022722 0.882759 0.469277
			0.137670 0.863151 0.485817
			-0.042130 0.776531 0.628669
			0.502724 -0.857747 0.107423
			0.537832 -0.802877 0.257148
			0.802305 -0.509217 0.311457
			0.793790 -0.525507 0.306169
			0.629733 -0.536539 0.561749
			0.531839 -0.753809 0.385900
			0.500642 -0.781724 0.371840
			0.446892 -0.815755 0.367193
			-0.432476 0.705932 0.560913
			-0.400678 0.679386 0.614729
			-0.125011 0.687815 0.715041
			-0.239515 0.657975 0.713934
			-0.004884 0.537006 0.843564
			0.551409 0.281730 0.785223
			0.696015 0.022547 0.717673
			0.160061 0.524190 0.836424
			0.696257 -0.103580 0.710280
			0.651420 -0.452337 0.609133
			-0.281923 0.584647 0.760728
			0.084589 -0.800867 -0.592837
			0.462977 -0.885261 -0.044341
			0.299103 -0.927442 -0.224473
			0.042382 -0.712519 -0.700372
			-0.319735 -0.575758 -0.752511
			-0.200766 -0.792673 -0.575641
			-0.164835 -0.819979 -0.548146
			0.084548 -0.907730 -0.410947
			-0.357244 -0.415683 -0.836412
			-0.591901 -0.104390 -0.799222
			-0.553602 0.046551 -0.831479
			-0.634533 -0.307435 -0.709120
			-0.389893 -0.604125 -0.694994
			-0.090414 0.974924 0.203343
			-0.282002 0.958749 0.035702
			-0.323832 0.905086 -0.275594
			-0.545794 0.705797 -0.451618
			-0.631863 -0.180192 -0.753843
			-0.666514 0.097503 -0.739088
			-0.638111 -0.401957 -0.656692
			-0.683358 -0.524590 -0.507766
			-0.262550 0.657990 0.705773
			-0.328307 0.652249 0.683218
			-0.146422 0.840425 0.521773
			-0.127387 0.924810 0.358467
			-0.284693 0.712713 0.641085
			0.318419 -0.941144 -0.113389
			0.324486 -0.930004 0.172631
			0.447009 -0.833812 0.323943
			0.622508 -0.637428 0.454059
			0.690304 -0.362995 0.625872
			0.528370 -0.575901 0.623830
			0.565154 -0.577894 0.588761
			0.441090 -0.835704 0.327167
			0.483078 -0.735622 0.474864
			-0.334537 0.748471 0.572605
			-0.437714 0.674835 0.594141
			-0.055922 0.564260 0.823701
			0.309584 0.514597 0.799592
			0.614228 0.295507 0.731710
			0.715716 0.044770 0.696955
			0.436111 0.520200 0.734302
			0.740281 -0.005582 0.672275
			0.761447 -0.074833 0.643894
			0.152705 0.644551 0.749156
			-0.244769 0.617923 0.747167
			-0.379974 0.694723 0.610721
			0.147700 -0.946039 -0.288436
			-0.687866 -0.195437 -0.699032
			-0.549707 -0.362787 -0.752468
			-0.341179 -0.653105 -0.676056
			-0.224672 -0.856729 -0.464261
			-0.638939 -0.472455 -0.607078
			-0.674373 -0.316109 -0.667305
			-0.322640 0.937405 0.131051
			-0.565014 0.819713 -0.093961
			-0.794491 0.349572 -0.496572
			-0.753229 0.082733 -0.652535
			-0.660024 -0.234647 -0.713659
			-0.642033 -0.313708 -0.699558
			-0.270500 0.762760 0.587389
			-0.435193 0.765009 0.474730
			0.145359 -0.989379 -0.000642
			0.372088 -0.889607 0.264858
			0.181465 -0.980956 0.069254
			0.414535 -0.886777 0.204421
			0.689830 -0.406080 0.599361
			0.806454 -0.145349 0.573155
			0.819023 -0.156838 0.551908
			0.515691 -0.656117 0.550975
			0.341533 -0.871167 0.352738
			0.338927 -0.904150 0.260082
			-0.338006 0.704710 0.623808
			-0.405758 0.649505 0.643043
			-0.138403 0.738266 0.660157
			0.783706 0.080688 0.615869
			0.724133 0.136028 0.676112
			0.278492 0.684241 0.673986
			0.586569 0.214062 0.781098
			0.777334 -0.134734 0.614491
			0.000826 0.776841 0.629696
			0.051718 0.799705 0.598161
			-0.339997 0.750392 0.566846
			-0.235081 0.813577 0.531816
			-0.009180 -0.994233 -0.106848
			-0.616275 -0.453094 -0.644136
			-0.543489 -0.572296 -0.614082
			-0.480937 -0.721343 -0.498362
			-0.230470 -0.939983 -0.251626
			-0.631174 -0.468206 -0.618386
			-0.513065 0.858279 -0.010998
			-0.624149 0.777248 0.079524
			-0.666884 0.744325 0.035297
			-0.770805 0.636352 -0.030264
			-0.770951 0.545404 -0.328891
			-0.800241 0.238542 -0.550192
			-0.806273 0.045363 -0.589802
			-0.767500 -0.143658 -0.624745
			-0.733680 -0.290452 -0.614290
			-0.747892 -0.305722 -0.589230
			-0.286731 0.697831 0.656366
			-0.223637 0.724466 0.652025
			-0.415206 0.643346 0.643202
			-0.736565 0.650589 0.184948
			-0.543710 0.739058 0.397708
			0.060398 -0.995880 -0.067639
			0.308803 -0.950648 -0.030138
			0.775763 -0.189518 0.601893
			0.781673 -0.390378 0.486407
			0.815624 -0.171991 0.552428
			0.613480 -0.628250 0.478481
			0.350488 -0.883850 0.309785
			0.199372 -0.973488 0.112124
			-0.355939 0.784629 0.507607
			-0.168307 0.820113 0.546889
			-0.259124 0.840831 0.475245
			0.841240 0.130324 0.524720
			0.808978 -0.067915 0.583902
			0.779665 0.017194 0.625961
			0.799159 -0.104334 0.591996
			0.772563 0.128367 0.621827
			0.036124 0.862543 0.504693
			-0.052702 0.743250 0.666935
			0.578126 -0.472043 0.665542
			0.604338 -0.195119 0.772467
			0.405516 0.176183 0.896949
			0.771112 -0.162292 0.615668
			-0.651131 -0.507770 -0.564090
			-0.574422 -0.623144 -0.530783
			-0.296830 -0.764653 -0.572012
			-0.058909 -0.930458 -0.361632
			-0.790619 0.609349 -0.060124
			-0.813002 0.519893 -0.262181
			-0.833199 0.301026 -0.463856
			-0.521577 0.067196 -0.850554
			-0.507448 -0.010837 -0.861614
			0.102953 -0.074156 -0.991918
			-0.654044 -0.498996 -0.568533
			-0.561684 -0.132186 -0.816724
			-0.603406 -0.294160 -0.741196
			-0.492074 0.802948 0.336359
			-0.588347 0.779584 0.214701
			0.025239 -0.921018 -0.388700
			0.291739 -0.913758 -0.282729
			0.093972 -0.977745 -0.187576
			0.154681 -0.964786 -0.212746
			0.787050 -0.318588 0.528256
			0.739877 -0.157469 0.654053
			0.733918 -0.296063 0.611319
			0.787743 -0.411409 0.458480
			0.728665 -0.456439 0.510598
			0.661212 -0.642151 0.387865
			0.256968 -0.965592 0.040000
			0.576065 -0.778053 0.250564
			-0.305533 0.903648 0.300115
			-0.309228 0.854138 0.418121
			0.139622 0.815327 0.561914
			0.075138 0.827655 0.556185
			-0.302466 0.864983 0.400399
			-0.304818 0.888576 0.342809
			0.580994 -0.226217 0.781839
			0.681281 0.137237 0.719042
			0.728177 -0.122932 0.674275
			-0.228652 0.835249 0.500077
			-0.034518 0.868250 0.494924
			-0.278609 0.796266 0.536970
			0.613658 -0.340294 0.712477
			0.553647 -0.439802 0.707142
			-0.017882 0.377188 0.925964
			0.653592 -0.152817 0.741259
			0.593780 0.200871 0.779151
			0.371258 0.435596 0.820015
			-0.397400 -0.627929 -0.669162
			-0.620765 -0.445127 -0.645378
			-0.004677 -0.762934 -0.646460
			0.020003 -0.728527 -0.684725
			-0.673065 0.726875 -0.136515
			-0.834815 0.496531 -0.237783
			-0.664321 0.344828 -0.663153
			0.079840 0.023916 -0.996521
			0.562773 0.005408 -0.826594
			-0.566345 0.614073 -0.549697
			0.448096 0.499337 -0.741534
			0.698602 0.089284 -0.709918
			-0.401746 0.878453 0.258689
			-0.471734 0.860344 0.193069
			-0.178227 -0.877372 -0.445482
			0.037551 -0.986941 -0.156644
			0.078606 -0.985229 -0.152133
			0.076780 -0.990284 -0.115939
			0.761847 -0.217511 0.610146
			0.757370 -0.185763 0.626005
			0.772845 -0.196945 0.603261
			0.734490 -0.358746 0.576043
			0.698974 -0.606010 0.379721
			0.724754 -0.385745 0.570905
			0.726723 -0.527357 0.440192
			0.367238 -0.929072 -0.044284
			0.526445 -0.830404 0.182440
			-0.345967 0.895878 0.278765
			-0.104349 0.944767 0.310688
			-0.283667 0.948377 0.141821
			-0.344081 0.892792 0.290741
			0.552662 -0.273623 0.787207
			0.656146 -0.154987 0.738547
			-0.393634 0.918091 0.046490
			-0.077594 0.992920 0.089939
			-0.154272 0.736784 0.658293
			0.270786 0.814483 0.513120
			-0.075757 0.987334 0.139402
			-0.300440 0.951937 -0.059601
			0.766942 -0.120616 0.630279
			0.642994 -0.275324 0.714672
			0.814088 0.377178 0.441586
			-0.468681 -0.790491 -0.394286
			-0.939085 -0.054900 -0.339273
			-0.225212 -0.955525 -0.190397
			-0.331745 -0.828579 -0.451002
			-0.425761 0.882525 0.199695
			-0.524659 0.143789 -0.839081
			-0.271025 0.960298 0.066130
			-0.308507 0.949503 -0.057171
			-0.632643 0.710888 -0.307249
			-0.861802 0.075901 -0.501534
			0.460470 -0.355628 -0.813324
			0.698455 -0.035034 -0.714796
			0.693195 -0.227360 -0.683950
			-0.970769 0.223953 0.086328
			-0.189471 0.920306 -0.342253
			-0.791455 0.598887 0.122200
			-0.796486 0.426467 0.428644
			0.372195 0.559125 -0.740845
			0.610779 0.309499 -0.728807
			-0.246522 -0.958301 -0.144517
			0.114736 -0.980904 -0.157042
			0.190284 -0.948877 -0.251843
			0.194742 -0.950398 -0.242528
			0.657747 -0.213753 0.722273
			0.682079 -0.238875 0.691164
			0.616006 -0.640936 0.457971
			0.602416 -0.402400 0.689325
			0.576040 -0.511513 0.637599
			0.206574 -0.959997 -0.189032
			0.322702 -0.924866 0.201213
			-0.341544 0.908006 0.242638
			-0.131358 0.990978 -0.026585
			-0.233809 0.965086 0.118079
			-0.461990 0.846409 -0.264874
			0.681784 -0.124686 0.720850
			0.609007 -0.187681 0.770640
			0.586762 -0.244123 0.772085
			-0.339461 0.886224 -0.315236
			-0.443757 0.895854 -0.022932
			-0.331370 0.934841 -0.127541
			-0.120024 0.992263 0.031754
			0.415095 0.903096 -0.110063
			-0.027197 0.908725 -0.416509
			0.845149 -0.050757 0.532115
			0.832813 0.103077 0.543872
			0.913675 0.260802 0.311737
			0.631015 0.721741 -0.284447
			0.631994 0.759186 -0.155628
			-0.838768 -0.190673 -0.510012
			-0.410221 -0.748633 -0.520833
			-0.453705 -0.254452 -0.854052
			-0.516036 -0.856032 0.030260
			-0.287625 -0.866689 -0.407580
			0.260939 0.956295 -0.131947
			-0.105034 0.966698 0.233372
			-0.763334 0.562690 -0.317334
			-0.960345 0.084698 -0.265640
			-0.952876 -0.301542 -0.033171
			0.568090 -0.637819 -0.520058
			0.799652 -0.264214 -0.539211
			0.835811 -0.002919 -0.549010
			-0.904414 0.079198 0.419242
			-0.888057 -0.054625 -0.456477
			-0.466622 0.750668 -0.467719
			-0.814266 0.421681 0.398944
			-0.823475 0.160152 0.544279
			-0.197824 0.980214 -0.006811
			0.670398 0.540184 -0.508692
			-0.165259 -0.669004 -0.724654
			0.129780 -0.902013 -0.411740
			0.117985 -0.967492 -0.223695
			0.034588 -0.930052 -0.365796
			0.597763 -0.193853 0.777882
			0.583212 -0.346517 0.734703
			0.461249 -0.730040 0.504272
			0.510409 -0.437188 0.740506
			0.507909 -0.574463 0.641889
			0.088354 -0.993126 -0.076774
			0.254965 -0.949103 0.184924
			-0.095679 0.980369 0.172402
			-0.247711 0.876743 0.412264
			-0.545489 0.655892 0.521773
			0.447535 -0.773789 -0.448290
			-0.744743 -0.595442 -0.301342
			0.725664 0.105370 0.679933
			0.649413 -0.060006 0.758065
			0.575933 -0.203559 0.791748
			0.551583 -0.284947 0.783940
			-0.074025 0.851883 -0.518475
			-0.214685 0.876401 -0.431082
			-0.029238 0.999522 -0.010071
			0.073681 0.972343 -0.221631
			0.198803 0.890471 0.409316
			0.346698 0.798075 -0.492825
			0.766439 0.638313 0.071605
			0.744179 0.561410 0.361962
			0.437951 0.854732 -0.278626
			0.384728 0.864739 -0.322818
			-0.385429 -0.186070 -0.903782
			-0.487558 -0.055655 -0.871315
			0.212869 -0.958509 0.189598
			-0.672140 -0.612072 0.416648
			0.309648 0.836982 0.451198
			-0.376799 0.899208 0.222366
			-0.631971 0.030477 -0.774393
			-0.616254 0.462755 -0.637251
			-0.525837 -0.095181 -0.845243
			-0.736755 -0.116217 -0.666097
			-0.807897 -0.335050 0.484814
			-0.911201 -0.066845 -0.406503
			0.564868 -0.652915 -0.504605
			0.698408 -0.359501 -0.618858
			0.779991 -0.021802 -0.625411
			-0.885373 0.078600 0.458190
			-0.917323 0.039021 -0.396226
			-0.711051 0.511816 0.482131
			-0.771656 0.046458 0.634341
			-0.804370 -0.000380 0.594128
			-0.097251 0.995024 0.021659
			-0.686314 0.581933 0.436265
			0.626265 0.527317 -0.574220
			-0.361883 -0.225791 -0.904466
			-0.274630 -0.575745 -0.770127
			0.012360 -0.983094 -0.182685
			-0.138890 -0.876778 -0.460402
			0.518605 -0.367808 0.771859
			0.370664 -0.834109 0.408498
			0.535909 -0.287575 0.793790
			0.465377 -0.531333 0.707891
			0.526860 -0.281748 0.801896
			0.428125 -0.709702 0.559492
			0.077802 -0.994456 -0.070746
			0.193362 -0.970726 0.142487
			-0.146049 0.869342 0.472137
			0.169975 0.664085 0.728080
			-0.727781 0.215106 0.651202
			0.529836 -0.757736 -0.380933
			-0.234663 -0.851523 -0.468872
			0.421121 -0.848479 -0.320533
			-0.727977 -0.586990 -0.354249
			0.581817 0.505091 0.637473
			0.622211 0.043637 0.781633
			0.589329 -0.106990 0.800778
			0.144520 0.884278 -0.444033
			0.478007 0.845977 0.236290
			0.081085 0.949628 -0.302709
			0.187428 0.978937 -0.080950
			0.451421 0.890127 -0.062392
			-0.018141 0.965720 0.258952
			0.507390 0.856843 -0.091518
			0.600559 0.770084 0.215175
			0.417772 0.900100 -0.123641
			0.503973 0.823722 0.259796
			0.275273 0.898058 -0.343098
			-0.398532 -0.170398 -0.901187
			-0.420277 -0.061471 -0.905312
			-0.411044 0.277173 -0.868457
			-0.274906 0.807615 0.521714
			-0.585387 -0.470560 0.660224
			-0.686119 -0.362296 0.630858
			-0.281222 0.959619 -0.006695
			-0.519901 0.421565 -0.742958
			-0.235183 -0.270438 -0.933570
			-0.059104 -0.099995 -0.993231
			-0.508768 -0.009146 -0.860855
			-0.246784 -0.483823 -0.839651
			-0.577013 -0.416632 -0.702477
			-0.741836 0.320661 -0.588945
			-0.195163 0.316810 -0.928193
			-0.370052 0.201626 -0.906867
			0.676120 -0.587427 -0.444738
			0.697584 -0.298333 -0.651440
			0.673962 -0.049511 -0.737105
			-0.778672 0.115149 0.616774
			0.129092 0.951948 0.277724
			-0.935974 0.248879 0.249021
			-0.910350 0.050282 0.410772
			0.383710 0.137089 -0.913221
			-0.496023 -0.218732 -0.840308
			-0.464005 -0.308299 -0.830452
			-0.291444 -0.663119 -0.689444
			-0.076374 -0.948755 -0.306646
			-0.226000 -0.753963 -0.616818
			0.269657 -0.907999 0.320660
			0.502299 -0.391020 0.771232
			0.541544 -0.256562 0.800566
			0.446673 -0.566671 0.692364
			0.353537 -0.786438 0.506485
			0.031740 -0.997652 -0.060697
			0.119101 -0.980851 0.154098
			-0.872047 0.489347 -0.008565
			-0.823396 0.505834 -0.257198
			-0.950710 -0.119736 0.286031
			0.031287 -0.962014 -0.271202
			0.546648 -0.303118 -0.780574
			0.590333 0.089141 0.802222
			0.553354 0.352963 0.754465
			0.399476 0.684909 0.609359
			0.237532 0.879167 0.413091
			0.593692 0.350255 0.724466
			0.580495 -0.058441 0.812164
			0.191637 0.958533 -0.210927
			0.287458 0.955619 -0.064504
			0.528046 0.800892 -0.282384
			0.340690 0.805927 -0.484162
			0.366751 0.903372 -0.222290
			0.239569 0.749489 -0.617149
			0.005681 0.842502 -0.538663
			0.267665 0.590252 -0.761550
			0.231422 0.959927 -0.158063
			0.130135 0.990863 0.035436
			-0.461085 0.035516 -0.886645
			-0.465481 0.171050 -0.868371
			-0.548199 0.280435 -0.787930
			-0.406328 0.292496 -0.865646
			-0.822095 -0.106277 0.559343
			-0.666201 0.306616 0.679825
			-0.746447 -0.410855 0.523465
			-0.181786 0.311837 -0.932583
			-0.468225 -0.048698 -0.882266
			-0.409249 0.071291 -0.909633
			-0.090782 0.560829 -0.822940
			-0.229534 -0.615682 -0.753824
			0.147916 0.087184 -0.985150
			-0.555605 -0.720136 -0.415581
			-0.508536 -0.060578 -0.858907
			-0.625673 -0.341613 -0.701309
			-0.713656 -0.586229 -0.383445
			-0.505659 0.341761 -0.792154
			-0.437811 0.467312 -0.768076
			0.392302 -0.204460 -0.896825
			0.220018 -0.015891 -0.975367
			0.279204 0.231203 -0.931982
			-0.826462 0.258384 0.500198
			-0.180562 0.963359 0.198335
			-0.749858 -0.295237 -0.592071
			-0.999785 -0.012663 0.016401
			-0.729163 -0.619277 -0.291234
			-0.833907 -0.404696 0.375261
			-0.709989 -0.045239 -0.702758
			-0.535959 -0.007052 -0.844214
			-0.529312 -0.057585 -0.846471
			-0.544682 -0.128778 -0.828696
			-0.485235 -0.294849 -0.823171
			-0.418439 -0.466073 -0.779542
			-0.260040 -0.770055 -0.582576
			-0.108053 -0.965222 -0.238056
			-0.236989 -0.862681 -0.446787
			-0.380481 -0.522880 -0.762778
			0.206691 -0.932051 0.297590
			0.447863 -0.575843 0.683976
			0.548927 -0.227558 0.804299
			0.261142 -0.868153 0.422037
			-0.035626 -0.998484 -0.041968
			0.091401 -0.977608 0.189550
			-0.983816 -0.081306 0.159672
			-0.398189 -0.904310 -0.153846
			-0.982640 0.025134 0.183814
			-0.621154 0.150014 -0.769196
			-0.397110 0.826240 -0.399539
			0.394897 -0.227034 -0.890231
			0.560584 0.084085 0.823818
			0.567993 -0.044970 0.821804
			0.462214 0.394840 0.794015
			0.320303 0.662772 0.676860
			0.194329 0.861301 0.469464
			0.006931 0.991837 0.127324
			0.069938 0.925193 0.372997
			-0.044296 0.982375 0.181593
			0.029503 0.995967 -0.084730
			0.208364 0.921902 -0.326620
			-0.039598 0.969956 -0.240035
			0.081778 0.536830 -0.839718
			-0.031879 0.841133 -0.539888
			-0.157973 0.451309 -0.878274
			-0.093748 0.401667 -0.910975
			-0.173188 0.329396 -0.928173
			-0.086852 0.996189 -0.008023
			-0.553293 0.282786 -0.783517
			-0.397617 0.162358 -0.903073
			-0.237542 0.203794 -0.949759
			-0.683157 -0.253578 -0.684831
			-0.556936 -0.128326 -0.820582
			-0.719638 -0.345231 -0.602442
			-0.414655 0.499876 -0.760385
			-0.950684 0.165239 -0.262481
			-0.571687 0.094624 -0.814997
			-0.565640 0.001960 -0.824650
			-0.538047 -0.171211 -0.825344
			-0.454640 -0.487513 -0.745408
			-0.363949 -0.712103 -0.600375
			-0.225752 -0.911776 -0.343074
			0.480157 -0.456352 0.749128
			0.385869 -0.652282 0.652406
			0.257949 -0.859154 0.441948
			0.243658 -0.850231 0.466625
			0.536506 -0.214734 0.816119
			-0.089667 -0.994528 -0.053615
			0.030578 -0.987335 0.155678
			-0.711721 0.035886 -0.701545
			0.544040 0.043060 0.837954
			0.553443 -0.049011 0.831444
			0.235344 0.738978 0.631289
			0.507452 0.200737 0.837972
			0.214637 0.775690 0.593495
			-0.159292 0.987193 0.008709
			-0.016651 0.950944 0.308914
			-0.095700 0.976177 0.194732
			-0.209051 0.977849 -0.010413
			-0.195579 0.962041 -0.190331
			-0.174543 0.892794 -0.415275
			-0.271150 0.611618 -0.743237
			-0.174875 0.775296 -0.606906
			-0.443482 0.129766 -0.886840
			-0.283802 0.936414 -0.206365
			-0.460102 0.619008 -0.636502
			-0.642335 0.188752 -0.742818
			-0.660363 0.225560 -0.716270
			-0.593612 -0.072257 -0.801501
			-0.611701 0.137323 -0.779079
			-0.562612 0.016125 -0.826564
			-0.548456 -0.024039 -0.835834
			-0.521084 -0.262158 -0.812246
			-0.479051 -0.495062 -0.724861
			-0.399576 -0.692689 -0.600434
			-0.293689 -0.879666 -0.374077
			0.464880 -0.411658 0.783852
			0.364000 -0.661820 0.655361
			0.252859 -0.814305 0.522465
			0.135181 -0.925509 0.353778
			0.519287 -0.172987 0.836909
			-0.128275 -0.987960 -0.086492
			-0.022919 -0.994383 0.103332
			0.490231 -0.005243 0.871577
			0.509341 -0.056909 0.858681
			0.456636 0.137679 0.878936
			0.315300 0.495331 0.809465
			0.109732 0.824636 0.554919
			-0.033643 0.948457 0.315114
			-0.344007 0.897509 -0.275930
			-0.098006 0.979766 0.174511
			-0.103650 0.990515 0.090209
			-0.109668 0.993702 0.023005
			-0.247009 0.963028 -0.107537
			-0.367074 0.871781 -0.324430
			-0.361496 0.839627 -0.405398
			-0.265903 0.768357 -0.582171
			-0.380350 0.747440 -0.544671
			-0.556824 0.210275 -0.803574
			-0.447299 0.462014 -0.765811
			-0.466814 0.747355 -0.472807
			-0.664685 0.171278 -0.727226
			-0.575289 0.174894 -0.799033
			-0.550191 0.167478 -0.818071
			-0.555168 0.132571 -0.821105
			-0.557421 -0.031727 -0.829623
			-0.534509 -0.230551 -0.813109
			-0.487928 -0.509871 -0.708490
			-0.356322 -0.806926 -0.471068
			0.477318 -0.255817 0.840670
			0.426661 -0.450863 0.784017
			0.491469 -0.171441 0.853854
			0.312683 -0.701560 0.640346
			0.067328 -0.945454 0.318723
			-0.169891 -0.978628 -0.115861
			-0.081503 -0.992931 0.086282
			0.471185 -0.008440 0.881994