<?xml version="1.0"?>
<VTKFile type="PolyData" version="0.1" byte_order="LittleEndian" compressor="vtkZLibDataCompressor">
	<PolyData>
		<Piece NumberOfPoints="15996" NumberOfVerts="0" NumberOfLines="0" NumberOfStrips="0" NumberOfPolys="31992">
		<PointData Normals="Normals">
		<DataArray type="Float32" Name="Normals" NumberOfComponents="3" format="ascii">
			0.080351 -0.996766 0.001270
			0.380198 -0.844197 -0.377863
			0.696376 -0.717642 0.007121
			0.387043 -0.803258 0.452742
			0.063645 -0.997427 -0.032999
			0.069912 -0.997553 -0.000773
			0.883218 -0.400986 -0.243180
			0.350508 -0.559652 -0.750955
			0.101406 -0.772932 -0.626333
			0.948190 -0.197595 0.248781
			0.915404 -0.367917 0.163318
			0.898516 -0.426377 0.104265
			0.081666 -0.995911 0.038637
			0.669062 -0.443834 0.596127
			-0.027175 -0.910570 0.412461
			-0.397900 -0.288133 0.871008
			-0.531014 -0.838516 -0.122125
			0.048064 -0.997986 -0.041396
			0.049368 -0.998729 -0.010121
			0.635699 -0.655073 -0.408370
			0.942221 -0.329207 0.061987
			0.925479 -0.330352 0.185356
			-0.110423 -0.635446 -0.764209
			-0.113638 -0.450283 -0.885625
			0.031939 -0.855698 -0.516489
			-0.272168 -0.265787 -0.924815
			0.886976 -0.460483 -0.035069
			0.848302 -0.508951 0.146124
			0.841048 -0.533530 0.089349
			0.887153 -0.449734 0.103442
			0.784962 -0.608880 0.114454
			0.060392 -0.998001 0.018633
			0.087950 -0.995557 0.033640
			0.477548 0.754950 0.449442
			0.815404 -0.578273 -0.026781
			0.885935 0.459700 -0.061604
			0.329422 -0.941175 -0.075306
			-0.075502 -0.842923 -0.532710
			0.111779 -0.966005 0.233108
			0.013794 -0.178708 0.983805
			0.258733 -0.719895 -0.644057
			0.409913 -0.446556 -0.795336
			0.067718 -0.984726 -0.160406
			0.017480 -0.998974 -0.041770
			0.024809 -0.999522 -0.018441
			0.917966 -0.394757 -0.038808
			0.431236 -0.751621 -0.499101
			0.936381 -0.344458 -0.067378
			0.893747 -0.448206 0.018084
			0.179001 -0.302826 -0.936085
			-0.318475 -0.267737 -0.909335
			-0.449553 -0.326492 -0.831448
			-0.376287 -0.262145 -0.888644
			-0.384029 -0.457186 -0.802186
			-0.467822 -0.182548 -0.864765
			-0.564982 -0.183474 -0.804446
			0.868287 -0.491389 0.067930
			0.862326 -0.504518 0.043065
			0.836721 -0.534865 0.117549
			0.841686 -0.519178 0.148389
			0.813310 -0.431366 0.390450
			0.875180 -0.426003 0.229306
			0.817442 -0.366900 0.444042
			0.777058 -0.613508 0.140669
			0.043509 -0.999052 -0.001516
			0.087573 -0.995966 0.019555
			0.056535 -0.998113 0.023954
			0.734042 -0.112945 0.669646
			0.984348 -0.075107 -0.159432
			0.918623 -0.234367 -0.318125
			0.645007 -0.732998 -0.216053
			0.841607 -0.465901 -0.273191
			-0.367692 -0.721379 -0.586868
			0.009324 -0.999336 -0.035218
			-0.359189 -0.734815 -0.575352
			0.779696 -0.457762 -0.427234
			0.856094 -0.219224 -0.468021
			0.876337 -0.364974 -0.314369
			0.883127 -0.457853 -0.102262
			0.408226 -0.015685 -0.912746
			-0.076699 0.073413 -0.994348
			-0.262602 0.075925 -0.961912
			-0.416477 0.105107 -0.903050
			-0.346308 0.112967 -0.931294
			-0.561339 -0.158603 -0.812246
			-0.527060 -0.197938 -0.826455
			-0.387472 0.033082 -0.921288
			-0.480641 -0.252606 -0.839746
			0.880453 -0.264769 0.393319
			0.960550 -0.277570 -0.017304
			0.946708 -0.304067 0.106243
			0.925772 -0.291261 0.241069
			0.724201 -0.297259 0.622230
			0.751704 -0.327266 0.572572
			0.847951 -0.143731 0.510217
			0.710950 -0.096073 0.696649
			0.834088 -0.352457 0.424348
			0.023217 -0.999652 -0.012492
			0.073929 -0.997072 0.019529
			0.043004 -0.998481 0.034442
			0.021053 -0.999291 0.031227
			0.593272 -0.741452 0.313490
			0.881326 -0.319572 0.348050
			-0.242962 -0.747158 -0.618647
			0.014302 -0.999684 -0.020647
			-0.406515 -0.182852 -0.895160
			0.684403 -0.111279 -0.720562
			0.844692 -0.196713 -0.497795
			0.907435 -0.150759 -0.392217
			0.956008 -0.240924 -0.167348
			0.145383 0.301374 -0.942357
			-0.246738 0.150478 -0.957328
			-0.357092 0.185909 -0.915381
			-0.552279 0.214610 -0.805562
			-0.442998 0.249742 -0.861035
			-0.478200 0.305049 -0.823571
			-0.345706 0.357194 -0.867698
			-0.434475 -0.030306 -0.900174
			-0.692095 -0.455385 -0.560026
			-0.515249 -0.312641 -0.797981
			-0.370963 0.399067 -0.838530
			0.895189 0.141072 0.422770
			0.748386 0.215701 0.627209
			0.643827 0.217761 0.733531
			0.959922 0.263168 -0.096399
			0.972158 0.208406 0.107122
			0.940372 0.203559 0.272514
			0.670297 0.025697 0.741648
			0.718646 0.026755 0.694861
			0.731467 -0.007658 0.681834
			0.725533 -0.266838 0.634350
			0.677946 -0.314827 0.664284
			0.735012 -0.272128 0.621051
			0.416608 0.217029 0.882800
			0.068697 -0.996468 0.048300
			0.035939 -0.999046 0.024795
			0.015245 -0.998958 0.043020
			0.024095 -0.999270 0.029632
			0.393777 -0.705297 0.589488
			-0.278834 -0.107147 -0.954343
			0.023209 -0.999261 -0.030637
			-0.256746 -0.757593 -0.600112
			-0.256072 -0.172903 -0.951068
			-0.371778 -0.167589 -0.913069
			0.671788 0.186429 -0.716899
			0.853859 0.300098 -0.425284
			0.953651 0.264111 -0.144207
			-0.115378 0.285245 -0.951485
			0.535794 0.601942 -0.592107
			-0.126491 0.408365 -0.904012
			0.356437 0.538376 -0.763612
			-0.270623 0.270872 -0.923792
			-0.324355 0.271543 -0.906123
			-0.570530 0.199057 -0.796789
			-0.287845 0.202374 -0.936050
			-0.458555 0.235113 -0.857000
			-0.456035 0.455825 -0.764366
			-0.534179 0.128817 -0.835499
			-0.618931 0.083223 -0.781024
			-0.463223 0.446757 -0.765397
			0.777334 0.442015 0.447632
			0.536851 0.288784 0.792714
			0.844202 0.525999 -0.103192
			0.876958 0.473882 -0.079876
			0.824457 0.481789 0.296900
			0.520279 0.349585 0.779166
			0.734978 -0.009266 0.678028
			0.713906 0.420774 0.559721
			0.733585 -0.309366 0.605099
			0.584703 -0.384299 0.714448
			0.665158 -0.410303 0.623872
			0.706447 -0.237417 0.666758
			0.317159 0.247669 0.915462
			0.452490 0.194947 0.870200
			0.041927 -0.998597 0.032333
			0.349001 -0.858900 0.374820
			0.010622 -0.999875 0.011735
			0.036379 -0.998450 0.042127
			0.039020 -0.999174 0.011340
			-0.046060 -0.796335 -0.603100
			-0.192743 -0.126472 -0.973065
			-0.647732 0.129797 -0.750730
			-0.545127 0.145462 -0.825638
			0.801307 0.548417 -0.239052
			-0.077479 0.424890 -0.901923
			0.115383 0.522717 -0.844662
			0.632128 0.581327 -0.512321
			0.385758 0.685795 -0.617151
			-0.328165 0.016524 -0.944476
			-0.226687 0.156465 -0.961318
			0.044295 0.525572 -0.849595
			0.029810 0.357300 -0.933514
			-0.506771 0.215782 -0.834638
			-0.443685 0.019101 -0.895979
			-0.485575 0.469046 -0.737708
			-0.548369 0.253274 -0.796959
			-0.543756 0.438145 -0.715792
			-0.531020 0.389053 -0.752765
			0.827862 0.506512 0.241019
			0.800266 0.498524 0.333238
			0.566411 0.395907 0.722797
			0.764098 0.612089 -0.203718
			0.815908 0.566623 0.115037
			0.724550 0.567236 0.391497
			0.462125 0.459557 0.758451
			0.699492 0.314899 0.641521
			0.658623 0.017043 0.752280
			0.738319 0.325244 0.590847
			0.769624 0.323093 0.550718
			0.712085 -0.282398 0.642796
			0.686315 -0.332567 0.646815
			0.630813 -0.439559 0.639424
			0.597357 -0.439372 0.670908
			0.621320 0.006511 0.783530
			0.409381 0.213908 0.886933
			0.472058 0.254334 0.844082
			0.034929 -0.999235 0.017602
			0.052087 -0.998379 0.022940
			0.395540 -0.785430 0.476075
			-0.273338 -0.961509 0.028039
			0.049526 -0.998749 -0.006953
			0.024732 -0.983245 -0.180601
			0.043416 -0.973131 0.226124
			0.042426 -0.998532 0.033668
			0.062643 -0.997944 0.013527
			0.026998 -0.999537 0.014049
			0.021579 -0.999746 0.006555
			-0.239697 -0.647872 -0.723054
			0.229099 -0.102642 -0.967976
			0.021383 -0.659548 -0.751358
			-0.399452 0.161383 -0.902438
			-0.464015 0.303314 -0.832280
			0.604486 0.758814 -0.242481
			0.262298 0.742584 -0.616254
			-0.300339 0.106191 -0.947903
			0.033470 0.552945 -0.832545
			0.526315 0.729499 -0.436833
			0.512692 0.617672 -0.596346
			0.356145 0.452572 -0.817520
			0.174040 0.645149 -0.743971
			0.037256 -0.101718 -0.994115
			-0.000212 0.252128 -0.967694
			-0.395996 0.102543 -0.912508
			-0.522665 0.452601 -0.722477
			-0.357204 0.088989 -0.929778
			-0.415846 0.339272 -0.843781
			-0.444551 -0.079005 -0.892263
			0.766616 0.612167 0.193781
			0.697555 0.643646 0.314859
			0.549349 0.519168 0.654737
			0.711304 0.693102 0.116857
			0.801694 0.372529 0.467450
			0.621934 0.400192 0.673086
			0.508125 0.303801 0.805924
			0.525380 0.283219 0.802348
			0.429689 0.316428 0.845719
			0.670367 0.399974 0.625003
			0.641931 -0.174860 0.746558
			0.654802 -0.243703 0.715432
			0.602322 -0.330428 0.726654
			0.500106 -0.458577 0.734575
			0.441129 -0.459531 0.770867
			0.560270 0.070129 0.825336
			0.049402 -0.998742 0.008598
			0.055057 -0.997765 0.037863
			0.323447 -0.773971 0.544381
			0.021973 -0.998798 0.043821
			0.052912 -0.998596 0.002520
			0.338535 -0.940820 0.015866
			0.028057 -0.999190 0.028833
			0.026430 -0.999645 0.003476
			0.016591 -0.999360 0.031699
			-0.425374 -0.857993 -0.287933
			-0.335773 -0.332039 -0.881480
			-0.499893 -0.514145 -0.696966
			0.504927 -0.051663 -0.861615
			-0.049294 0.607782 -0.792572
			-0.075942 -0.756888 -0.649117
			0.064134 -0.059403 -0.996172
			-0.406448 0.264758 -0.874473
			-0.334101 -0.102850 -0.936909
			-0.240588 -0.141044 -0.960325
			0.433747 0.755277 -0.491345
			0.552692 0.643169 -0.529968
			0.606077 0.715642 -0.347170
			0.674226 0.736480 -0.054928
			0.753088 0.651772 -0.089731
			0.764746 0.627713 -0.145398
			0.510163 -0.705014 -0.492635
			-0.074750 0.081170 -0.993893
			0.681634 -0.491031 0.542461
			0.942773 0.307925 0.127909
			0.427182 0.536426 -0.727848
			0.280230 0.279570 -0.918320
			0.638811 0.522635 -0.564600
			0.642660 0.439113 -0.627828
			0.180973 -0.909186 -0.375005
			-0.354178 -0.128576 -0.926297
			-0.301385 -0.599628 -0.741359
			0.744587 0.648547 0.158038
			0.761666 0.636434 0.121725
			0.705879 0.607659 0.363986
			0.486523 0.389522 0.782028
			0.739006 0.561465 0.372328
			0.613442 0.456069 0.644740
			0.549421 0.446907 0.705982
			0.453342 0.368406 0.811639
			0.493438 0.371864 0.786280
			0.556187 0.326260 0.764337
			0.569443 0.060414 0.819808
			0.543941 0.364703 0.755724
			0.452352 0.334388 0.826778
			0.471862 0.334631 0.815701
			0.607673 -0.117278 0.785480
			0.543496 -0.257508 0.798938
			0.387886 -0.467162 0.794547
			0.436373 -0.246250 0.865413
			0.346643 -0.445429 0.825489
			0.347571 -0.343421 0.872500
			0.042924 -0.998862 0.020800
			0.047074 -0.998603 0.023993
			0.208496 -0.870855 0.445130
			0.014325 -0.999894 0.002591
			-0.351861 -0.934312 0.057058
			-0.370349 -0.887493 0.274223
			-0.226813 -0.933253 0.278559
			-0.446285 -0.862250 0.239488
			-0.691943 -0.340487 -0.636619
			-0.602930 -0.790916 0.104536
			-0.579441 -0.608780 -0.541881
			-0.079766 -0.962179 -0.260479
			-0.138440 0.666694 -0.732362
			0.082768 -0.038259 -0.995834
			-0.117148 0.932666 -0.341190
			-0.352736 -0.033362 -0.935128
			-0.465447 0.365561 -0.806055
			-0.258345 0.196204 -0.945918
			-0.286865 -0.759676 -0.583610
			-0.193244 -0.900852 -0.388745
			-0.348148 -0.921802 -0.170514
			0.771855 0.635007 0.031705
			0.776666 0.628504 -0.042104
			0.787269 0.601511 0.135615
			0.477546 -0.663644 0.575783
			-0.163552 0.030801 -0.986054
			0.300657 0.135133 -0.944110
			0.510563 -0.344445 0.787834
			0.639711 -0.208124 0.739902
			0.831430 0.091670 0.548016
			0.275262 -0.421528 0.864029
			0.357491 -0.355623 0.863558
			0.712774 0.593877 0.373180
			0.691413 0.691074 0.210629
			0.578784 0.804665 0.132374
			0.280516 0.755861 -0.591595
			-0.098930 0.107875 -0.989230
			0.565128 0.393749 -0.724977
			0.825511 0.560453 -0.066513
			0.829001 0.516003 -0.215636
			0.066519 -0.994260 0.083797
			0.273245 -0.740943 0.613466
			0.636533 0.460769 0.618480
			0.538592 0.419582 0.730664
			0.629982 0.504944 0.590046
			0.765523 0.570814 0.296893
			0.523274 0.361956 0.771474
			0.472298 0.386120 0.792367
			0.443002 0.414886 0.794744
			0.472056 0.417865 0.776242
			0.418997 0.443964 0.792046
			0.565795 0.072429 0.821358
			0.455732 0.338180 0.823373
			0.516754 0.378225 0.768056
			0.489819 0.326297 0.808460
			0.455820 0.090263 0.885483
			0.373022 -0.169087 0.912285
			0.263681 -0.454311 0.850925
			0.286614 -0.317851 0.903783
			0.038490 -0.999144 0.015134
			0.042269 -0.998888 0.020885
			0.049155 -0.997505 0.050677
			0.159555 -0.764098 0.625057
			-0.516118 -0.838732 -0.173639
			0.011792 -0.999911 -0.006246
			-0.327743 -0.893174 -0.307937
			-0.633962 -0.740865 0.221836
			-0.692463 -0.682030 -0.235224
			-0.470851 -0.840971 0.266586
			-0.462159 -0.740100 0.488530
			0.016277 -0.974586 0.223422
			-0.006008 -0.786608 -0.617424
			-0.490782 -0.715175 -0.497652
			-0.776868 -0.173638 -0.605249
			-0.139364 0.174393 -0.974764
			0.050902 0.994389 0.092737
			-0.196737 0.171477 -0.965345
			-0.360907 -0.932428 0.018012
			-0.584381 -0.802732 -0.118829
			0.419217 -0.643137 -0.640805
			0.246974 0.707116 -0.662564
			-0.182359 0.201103 -0.962446
			-0.181642 0.016652 -0.983224
			-0.625410 -0.538345 -0.564843
			0.015350 -0.925666 0.378030
			-0.012788 -0.846888 0.531618
			-0.464869 -0.770899 0.435444
			-0.144659 -0.752495 0.642514
			0.155347 -0.534150 0.830994
			0.078293 -0.080264 -0.993694
			0.772736 0.343873 -0.533507
			0.592157 0.170240 -0.787635
			0.830105 0.331441 -0.448411
			0.351608 -0.360694 0.863870
			0.717728 -0.155968 0.678632
			0.841970 0.203939 0.499495
			0.453749 -0.268727 0.849645
			0.150780 -0.548547 0.822412
			0.656618 0.645683 0.389803
			0.849374 0.331574 0.410637
			0.730477 0.572755 0.371961
			0.657398 0.608879 0.443952
			0.561123 0.681320 0.470047
			0.435518 0.655113 0.617374
			0.365696 0.886029 0.284988
			0.059734 0.975212 -0.213056
			-0.151522 0.281211 -0.947608
			-0.048659 -0.173750 -0.983587
			0.776437 0.526370 0.346524
			0.788695 0.512332 0.339816
			0.801245 0.532537 0.272782
			0.880122 0.472398 0.047178
			0.160046 -0.712340 0.683342
			0.192486 -0.632461 0.750294
			0.665354 0.458115 0.589436
			0.447460 0.333428 0.829822
			0.440605 0.421221 0.792742
			0.454517 0.378423 0.806357
			0.239193 0.437645 0.866749
			0.417432 0.381906 0.824559
			0.300685 0.397540 0.866920
			0.304316 0.441354 0.844155
			0.323986 0.351223 0.878451
			0.439458 0.335296 0.833339
			0.458019 0.367757 0.809304
			0.640448 0.428347 0.637452
			0.366624 0.152658 0.917759
			0.292257 0.041346 0.955446
			0.132773 -0.444341 0.885964
			0.122198 -0.351849 0.928046
			0.033131 -0.999355 0.013816
			0.038466 -0.998302 0.043748
			0.054205 -0.828697 0.557066
			-0.469101 -0.846977 -0.250150
			0.014580 -0.999890 -0.002825
			-0.265756 -0.893397 -0.362235
			-0.467098 -0.847271 -0.252884
			0.032849 -0.939749 0.340283
			0.206187 -0.965735 -0.157615
			-0.151574 -0.179025 0.972098
			-0.333726 -0.519526 -0.786587
			-0.194557 0.081005 -0.977541
			-0.000854 0.944140 0.329543
			-0.161431 0.200927 -0.966213
			-0.096356 0.155909 -0.983061
			0.233753 0.923147 -0.305221
			-0.294788 -0.948734 -0.114034
			-0.367214 -0.910472 -0.190250
			-0.262048 -0.879734 -0.396735
			0.344526 -0.862087 -0.371629
			0.759045 -0.002567 -0.651033
			0.394438 0.756552 -0.521582
			-0.122018 0.045986 -0.991462
			-0.375275 -0.718178 -0.585994
			0.064360 -0.669098 0.740382
			0.029165 -0.603218 0.797043
			-0.332637 -0.590282 0.735472
			-0.458346 -0.866728 0.196726
			-0.034845 -0.487603 0.872370
			0.098523 -0.696500 0.710761
			0.119616 -0.145121 -0.982157
			0.385734 0.015284 -0.922484
			0.834640 0.385476 -0.393426
			0.744651 0.289390 -0.601455
			0.892974 0.396674 -0.212716
			0.893172 0.449029 0.024836
			0.482324 -0.651804 0.585247
			0.204479 -0.827228 0.523338
			0.795222 -0.192475 0.574956
			-0.011578 -0.916123 0.400731
			-0.042332 -0.894625 0.444808
			0.609109 0.602137 0.516155
			0.824265 0.366044 0.431971
			0.740983 0.550709 0.384270
			0.673723 0.583724 0.453171
			0.653633 0.572138 0.495401
			0.220140 0.668218 0.710650
			0.502847 0.577737 0.642934
			0.298245 0.596721 0.744966
			0.142104 0.849923 0.507383
			-0.191198 0.960470 -0.202339
			-0.217262 0.187518 -0.957932
			-0.066595 -0.229372 -0.971058
			0.049977 -0.203998 -0.977695
			0.806058 0.471614 0.357563
			0.801880 0.454060 0.388353
			0.732392 0.474631 0.488187
			0.097350 -0.684215 0.722754
			0.102421 -0.791589 0.602409
			0.304447 0.308825 0.901077
			0.341501 0.351973 0.871488
			0.323135 0.388474 0.862944
			0.206014 0.426677 0.880628
			0.284945 0.457611 0.842258
			0.374573 0.445082 0.813387
			0.213729 0.362145 0.907288
			0.223334 0.390955 0.892903
			0.456098 0.327249 0.827577
			0.303517 0.291449 0.907158
			0.454963 0.338410 0.823704
			0.571328 0.438448 0.693793
			0.195230 0.024129 0.980461
			0.323628 0.345988 0.880657
			0.032300 -0.446875 0.894013
			0.025856 -0.441228 0.897022
			0.041906 -0.350005 0.935810
			0.098202 -0.257364 0.961312
			0.016091 -0.999379 0.031350
			-0.086209 -0.810569 0.579264
			-0.524264 -0.764536 -0.375010
			-0.365808 -0.914093 -0.174980
			-0.282796 -0.858957 -0.426871
			0.073766 -0.997100 -0.018698
			-0.069553 -0.906629 0.416157
			-0.132137 -0.182364 0.974312
			0.158849 -0.920425 -0.357190
			-0.110393 0.822479 0.557980
			-0.018045 -0.896644 -0.442385
			-0.050000 -0.516802 -0.854643
			0.063423 0.006160 -0.997968
			-0.035256 -0.062591 -0.997416
			0.025635 0.097170 -0.994938
			0.105015 0.978195 -0.179182
			-0.015731 0.025638 -0.999548
			0.106043 -0.003431 -0.994356
			0.145672 0.857178 -0.493990
			-0.195427 -0.946752 -0.255869
			-0.155097 -0.923516 -0.350802
			0.490661 -0.299308 -0.818332
			0.227181 -0.088229 -0.969848
			0.234444 -0.566136 -0.790270
			0.061746 -0.678890 0.731639
			0.062822 -0.642707 0.763532
			-0.366721 -0.336910 0.867184
			-0.625377 -0.421420 0.656741
			-0.921106 -0.381335 -0.078410
			0.117802 -0.334219 -0.935104
			-0.206358 -0.265709 -0.941708
			-0.118756 -0.604698 0.787552
			0.063347 -0.909338 0.411208
			0.108515 -0.087445 -0.990241
			-0.019099 0.115879 -0.993080
			0.899172 0.403522 -0.169292
			0.931114 0.350968 -0.099236
			0.899965 0.428267 0.081547
			0.495872 0.051168 -0.866887
			0.830513 0.280880 -0.480993
			0.854008 0.465470 0.232395
			0.826627 0.458723 0.325977
			0.597990 -0.690467 0.407017
			0.387515 -0.914732 0.114440
			0.179016 -0.973650 0.141279
			0.060256 -0.981794 0.180136
			0.731826 -0.184294 0.656100
			-0.007886 -0.952816 0.303447
			0.091092 -0.922291 0.375609
			0.648222 0.532221 0.544564
			0.839615 0.400007 0.367480
			0.780914 0.531341 0.328404
			0.776330 0.533098 0.336331
			0.742619 -0.179005 0.645348
			0.792696 0.282739 0.540085
			0.760519 0.526802 0.379592
			0.694202 0.552981 0.460755
			0.731005 0.516811 0.445576
			0.003583 0.741447 0.671001
			0.035671 0.607736 0.793338
			0.139223 0.580284 0.802426
			0.546414 0.560193 0.622589
			0.478123 0.548895 0.685648
			0.359198 0.576371 0.734012
			0.196228 0.571355 0.796899
			-0.188828 0.347642 -0.918417
			-0.203762 0.978140 0.041498
			-0.069201 -0.119049 -0.990474
			-0.053139 -0.209092 -0.976451
			0.022473 -0.265444 -0.963864
			0.066551 -0.255444 -0.964531
			0.195794 -0.165508 -0.966577
			0.500012 0.419662 0.757543
			0.702212 0.481277 0.524662
			0.595882 0.441819 0.670612
			0.414957 0.388843 0.822564
			0.034353 -0.836797 0.546434
			0.036906 -0.897464 0.439542
			0.163749 0.264783 0.950303
			0.183234 0.344307 0.920803
			0.248732 0.432938 0.866428
			0.328206 0.502576 0.799811
			0.393191 0.402514 0.826670
			0.137421 0.390452 0.910309
			0.344644 0.360988 0.866549
			0.225394 0.336089 0.914463
			0.317059 0.366220 0.874846
			0.186282 0.255441 0.948709
			0.119115 0.027157 0.992509
			-0.051563 -0.454567 0.889219
			-0.041829 -0.454268 0.889882
			-0.000198 -0.360179 0.932883
			0.023361 -0.288831 0.957095
			0.051249 -0.036485 0.998019
			-0.368443 -0.885013 0.284608
			-0.337289 -0.553480 0.761509
			-0.446926 -0.853456 -0.268087
			-0.614637 -0.761436 0.206003
			-0.201282 -0.936218 -0.288067
			0.044672 -0.951812 -0.303412
			-0.041347 -0.993849 0.102740
			-0.100321 -0.906026 0.411160
			-0.205586 -0.412338 0.887531
			-0.229103 0.707692 0.668344
			-0.077131 0.997007 0.005200
			-0.175742 -0.951626 -0.252039
			-0.130445 -0.926604 -0.352688
			-0.119203 -0.569024 -0.813635
			-0.038863 -0.091266 -0.995068
			0.061444 -0.071030 -0.995580
			0.143296 0.067475 -0.987377
			0.233401 -0.085511 -0.968613
			0.231282 -0.014827 -0.972774
			0.180408 -0.006792 -0.983568
			0.031213 0.872013 -0.488486
			0.214405 -0.152820 -0.964716
			0.128513 -0.120061 -0.984414
			-0.198395 -0.934997 -0.293973
			0.059191 -0.848713 0.525531
			0.033681 -0.852603 0.521472
			-0.354809 -0.460676 0.813565
			-0.676184 0.045372 0.735334
			-0.762593 -0.031454 0.646113
			-0.794110 0.059004 0.604903
			-0.671049 0.453166 -0.586800
			0.040512 -0.172552 -0.984167
			0.222532 -0.189371 -0.956357
			0.227356 -0.220921 -0.948421
			-0.119637 -0.825663 0.551333
			0.133005 -0.889369 0.437417
			0.911751 0.329811 -0.244815
			0.767152 0.457789 0.449341
			0.895656 0.400328 0.193744
			0.699262 0.405177 0.588952
			0.707675 0.453977 0.541388
			0.362409 -0.057222 -0.930261
			0.703063 0.142619 -0.696679
			0.544199 0.402998 0.735827
			0.579126 0.442412 0.684751
			0.373221 -0.904351 0.207016
			0.509750 -0.733174 0.450123
			0.345137 -0.930916 0.119484
			0.225858 -0.964272 0.138447
			0.154829 -0.960525 0.231127
			0.153206 -0.931753 0.329187
			0.162812 -0.892335 0.420988
			0.178271 -0.874563 0.450953
			0.695503 0.523408 0.492260
			0.617871 0.506325 0.601557
			0.796532 0.468166 0.382567
			0.784065 0.530897 0.321543
			0.782986 0.527113 0.330279
			0.788257 0.506348 0.349661
			0.696488 -0.037814 0.716571
			0.745726 0.407572 0.527046
			0.769328 0.497013 0.401388
			0.730969 0.520502 0.441319
			-0.166660 0.659952 0.732590
			-0.167520 0.535703 0.827623
			-0.063918 0.531878 0.844405
			0.065992 0.544631 0.836075
			0.406054 0.528565 0.745479
			0.461881 0.487978 0.740637
			0.233445 0.521274 0.820839
			-0.155319 0.582999 -0.797489
			-0.089775 -0.028607 -0.995551
			-0.335096 0.939941 0.064982
			0.024139 -0.268753 -0.962907
			0.046028 -0.275761 -0.960123
			0.066772 -0.284796 -0.956260
			0.134608 -0.228986 -0.964078
			0.237360 -0.150767 -0.959651
			0.242247 0.334740 0.910640
			0.313151 0.338610 0.887288
			0.202138 0.323995 0.924212
			0.047107 -0.884194 0.464739
			0.073831 -0.865984 0.494591
			0.131721 0.320678 0.937985
			0.103760 0.343104 0.933549
			0.141989 0.439974 0.886714
			0.225921 0.561006 0.796387
			0.124387 0.486822 0.864599
			0.196563 0.562687 0.802961
			0.219881 0.397070 0.891060
			0.037304 0.387325 0.921188
			0.080909 0.426814 0.900713
			0.121093 0.315245 0.941253
			0.172269 0.327729 0.928933
			0.070445 0.204611 0.976305
			-0.113723 -0.406110 0.906721
			-0.016958 -0.317981 0.947946
			-0.004524 -0.049305 0.998773
			-0.009542 0.200047 0.979740
			-0.272349 -0.636995 0.721155
			-0.474631 -0.765303 0.434783
			-0.440618 -0.897457 0.020670
			-0.304004 -0.943950 -0.128610
			0.005441 -0.973826 -0.227231
			-0.092904 -0.972815 0.212132
			-0.356587 -0.024973 0.933928
			-0.206246 0.956653 0.205618
			-0.041939 0.898731 -0.436489
			-0.323325 -0.931579 -0.166196
			-0.255611 -0.961288 -0.102896
			-0.223017 -0.944126 -0.242671
			-0.280203 -0.553136 -0.784555
			-0.081197 -0.165449 -0.982870
			0.045483 -0.151860 -0.987355
			0.230979 -0.113926 -0.966266
			0.318635 -0.188635 -0.928918
			0.359060 -0.207818 -0.909883
			0.036853 -0.146938 -0.988459
			0.075688 -0.878888 0.470986
			0.005489 -0.858869 0.512167
			-0.162677 -0.783136 0.600195
			-0.408890 -0.442644 0.798045
			-0.555093 0.071474 0.828712
			-0.592758 0.455317 0.664322
			-0.552615 0.337814 0.761905
			-0.614495 0.298508 0.730266
			-0.790907 0.458131 0.405687
			-0.227073 0.548281 -0.804876
			-0.610661 0.780897 0.131505
			0.059884 0.000896 -0.998205
			0.271598 -0.221360 -0.936608
			0.080434 -0.265362 -0.960788
			0.075906 -0.277478 -0.957729
			0.158942 -0.262766 -0.951678
			0.319589 -0.224340 -0.920616
			-0.117998 -0.807778 0.577556
			0.074240 -0.882199 0.464988
			0.963840 0.250195 0.091734
			0.922048 0.308020 -0.234417
			0.915788 0.400321 -0.032793
			0.822463 0.433362 0.368446
			0.437055 0.360726 0.823929
			0.548349 0.412075 0.727673
			0.323670 0.336736 0.884221
			0.338703 -0.093957 -0.936190
			0.676843 0.152236 -0.720214
			0.428897 -0.007950 -0.903319
			0.291217 0.339542 0.894373
			0.301723 -0.912323 0.276821
			0.300461 -0.925997 0.228591
			0.343860 -0.894510 0.285678
			0.499323 -0.792523 0.350120
			0.663604 -0.233472 0.710718
			0.315970 -0.918798 0.236586
			0.246673 -0.918496 0.309058
			0.203664 -0.910554 0.359740
			0.218492 -0.894661 0.389670
			0.209316 -0.866471 0.453228
			0.092363 -0.852301 0.514833
			0.732438 0.478602 0.484226
			0.692757 0.452429 0.561601
			0.568796 0.484678 0.664499
			0.773050 0.542943 0.328033
			0.795819 0.492267 0.352626
			0.786542 0.530651 0.315850
			0.807045 0.497331 0.318338
			0.800616 0.498760 0.332042
			0.817015 0.461595 0.345567
			0.806367 -0.320112 0.497294
			0.938365 -0.106993 0.328670
			0.832108 0.443311 0.333274
			0.779273 0.479136 0.403933
			0.766597 0.462446 0.445502
			0.751568 0.470612 0.462244
			-0.360843 0.587033 0.724696
			-0.322731 0.478196 0.816807
			-0.253697 0.464447 0.848485
			-0.132543 0.491050 0.860989
			0.050017 0.485214 0.872964
			0.318730 0.490819 0.810869
			0.502915 0.440155 0.743869
			0.397790 0.436059 0.807227
			0.370349 0.494454 0.786357
			0.138210 0.470363 0.871583
			0.005758 0.016196 -0.999852
			0.070231 -0.298370 -0.951863
			0.095906 -0.261596 -0.960401
			0.167817 -0.197293 -0.965874
			0.103830 0.303233 0.947243
			0.119998 0.294723 0.948018
			0.126858 0.287821 0.949245
			0.155180 0.283882 0.946219
			0.090321 -0.866417 0.491084
			0.045635 -0.906703 0.419294
			0.061904 0.320070 0.945369
			0.035616 0.329893 0.943346
			0.035928 0.578772 0.814697
			0.049541 0.574647 0.816900
			0.036653 0.451333 0.891603
			0.026234 0.496820 0.867457
			0.032340 0.395670 0.917823
			-0.005578 0.392576 0.919703
			0.039987 0.304207 0.951766
			-0.190458 -0.439198 0.877970
			-0.110987 -0.348120 0.930857
			-0.096638 -0.109262 0.989304
			-0.066494 0.194093 0.978727
			-0.021471 0.391355 0.919989
			-0.357410 -0.815215 0.455722
			-0.137718 -0.470413 0.871634
			-0.289489 -0.734820 0.613381
			-0.182282 -0.507864 0.841931
			-0.371022 -0.916509 0.149514
			-0.375639 -0.924148 -0.069615
			-0.054106 -0.987873 -0.145535
			-0.120980 -0.972094 0.200989
			-0.356308 -0.479624 0.801877
			-0.356147 0.840858 0.407574
			-0.164789 0.923558 -0.346246
			-0.117468 -0.176566 -0.977254
			-0.322049 -0.941873 -0.095705
			-0.234480 -0.971460 -0.035847
			-0.573763 -0.634796 -0.517523
			-0.585785 -0.808625 -0.054598
			-0.639855 -0.723218 -0.259887
			-0.221287 -0.311263 -0.924201
			0.153731 -0.293550 -0.943501
			0.224355 -0.171395 -0.959317
			0.350938 -0.229353 -0.907876
			0.353912 -0.210839 -0.911204
			0.433619 -0.222072 -0.873304
			0.410350 -0.207665 -0.887969
			0.441367 -0.225891 -0.868429
			0.070924 -0.856464 0.511311
			-0.051604 -0.832845 0.551096
			-0.184686 -0.779533 0.598514
			-0.663073 0.133731 0.736512
			-0.281146 -0.733136 0.619248
			-0.457813 -0.370634 0.808107
			-0.650817 0.137280 0.746721
			-0.431811 0.391290 0.812669
			-0.487737 0.317019 0.813395
			-0.481239 0.245366 0.841549
			-0.501425 0.196360 0.842625
			-0.605604 0.203444 0.769320
			0.251662 -0.253915 -0.933913
			0.332459 -0.205237 -0.920516
			0.133677 -0.302732 -0.943654
			-0.140777 -0.801151 0.581669
			-0.127678 -0.905668 0.404306
			0.865703 0.305185 -0.396762
			0.925807 0.376150 -0.037304
			0.751408 0.438123 0.493392
			0.227172 0.356756 0.906156
			0.366893 0.352422 0.860923
			0.128631 0.297605 0.945984
			0.193402 0.562472 0.803879
			0.252771 -0.157724 -0.954584
			0.441196 -0.048134 -0.896119
			0.651004 0.084884 -0.754313
			0.781115 0.277639 -0.559264
			0.902980 0.351652 -0.246916
			0.336465 -0.885806 0.319593
			0.274292 -0.884578 0.377207
			0.287583 -0.897215 0.335115
			0.401777 -0.888151 0.223075
			0.516373 -0.842267 0.154746
			0.272298 -0.913154 0.303322
			0.235781 -0.912008 0.335631
			0.331662 -0.848200 0.412985
			0.293925 -0.815638 0.498340
			0.206878 -0.772598 0.600244
			-0.293663 -0.767719 0.569535
			0.759112 0.410864 0.504915
			0.717124 0.430656 0.547967
			0.689060 0.402567 0.602608
			0.603111 0.436327 0.667739
			0.806890 0.499757 0.314914
			0.778969 0.542922 0.313755
			0.778284 0.539846 0.320688
			0.812165 0.491946 0.313650
			0.827498 0.439974 0.348814
			0.807378 0.429016 0.405076
			0.868378 0.424867 0.255751
			0.550631 -0.825462 0.124164
			0.885878 -0.403779 0.228436
			0.854866 0.424023 0.299012
			-0.295916 0.413374 0.861136
			-0.104204 0.434448 0.894649
			-0.023054 0.440633 0.897391
			0.249532 0.480301 0.840859
			0.615187 0.369265 0.696554
			0.467063 0.377063 0.799797
			0.259856 0.422036 0.868540
			0.298434 0.371667 0.879091
			0.086897 0.403391 0.910892
			0.097069 -0.281351 -0.954683
			0.127910 -0.238851 -0.962595
			0.027051 0.281572 0.959159
			0.030058 0.270077 0.962369
			0.024383 0.256388 0.966266
			0.033928 0.248326 0.968082
			0.173746 -0.889585 0.422435
			0.312291 -0.928513 0.200840
			0.002975 0.321295 0.946975
			-0.006558 0.315694 0.948838
			-0.027551 0.581974 0.812741
			-0.031590 0.568021 0.822408
			0.001904 0.400813 0.916158
			0.012789 0.462079 0.886747
			-0.011010 0.485970 0.873906
			-0.004604 0.296618 0.954985
			-0.141693 -0.355738 0.923782
			-0.260551 -0.187710 0.947036
			-0.200549 -0.355107 0.913060
			-0.253864 0.123118 0.959372
			-0.099809 0.381720 0.918873
			-0.063271 0.576920 0.814346
			-0.382167 -0.905353 0.185160
			-0.328527 -0.835399 0.440658
			-0.254804 -0.777219 0.575331
			-0.290406 -0.527612 0.798305
			-0.366922 -0.928854 -0.050981
			-0.121664 -0.990131 -0.069565
			-0.693783 -0.260086 0.671581
			-0.456689 0.885972 -0.080554
			-0.471686 0.168943 -0.865431
			-0.267958 -0.962448 -0.043496
			-0.610158 -0.478332 -0.631590