<?xml version="1.0"?>
<VTKFile type="PolyData" version="0.1" byte_order="LittleEndian" compressor="vtkZLibDataCompressor">
	<PolyData>
		<Piece NumberOfPoints="9107" NumberOfVerts="0" NumberOfLines="0" NumberOfStrips="0" NumberOfPolys="18224">
		<PointData Normals="Normals">
		<DataArray type="Float32" Name="Normals" NumberOfComponents="3" format="ascii">
			0.561354 0.599019 0.571014
			0.559831 0.607312 0.563704
			0.447364 0.891121 0.075955
			0.022839 0.998485 0.050069
			0.360858 0.708050 0.606998
			0.361393 -0.047773 0.931189
			0.157160 0.312893 0.936696
			0.088872 -0.166766 0.981983
			0.635761 0.754118 0.164663
			0.204337 0.273880 0.939806
			0.369422 0.738475 0.564076
			0.554968 0.801819 0.221576
			0.377613 0.925824 -0.016071
			0.034424 0.999058 0.026408
			0.129702 0.771536 0.622823
			0.004981 0.997670 0.068044
			0.144875 -0.115887 0.982640
			-0.005729 -0.363996 0.931383
			0.071788 -0.101809 0.992210
			-0.243041 -0.541590 0.804743
			-0.104849 -0.419002 0.901911
			0.612097 0.790358 -0.025910
			0.592144 0.805564 -0.020801
			0.153998 0.368303 0.916863
			0.030836 -0.122562 0.991982
			0.093616 -0.221053 0.970758
			0.429978 0.811623 0.395459
			0.560644 0.822480 0.095943
			0.603826 0.795117 -0.056427
			0.339026 0.930737 -0.137079
			0.038827 0.999218 0.007441
			0.016976 0.998969 0.042097
			-0.006263 0.996760 0.080194
			0.192652 0.635934 0.747310
			-0.005569 0.996996 0.077249
			0.170289 -0.199734 0.964939
			0.050910 -0.456496 0.888268
			-0.197954 -0.671259 0.714301
			-0.330546 -0.430512 0.839880
			-0.645609 -0.194934 0.738370
			-0.471638 -0.638232 0.608455
			-0.386488 -0.167687 0.906922
			-0.273707 -0.252709 0.928021
			0.578836 0.794043 -0.185590
			0.584838 0.795686 -0.157633
			0.590774 0.794136 -0.142598
			0.389517 0.450203 0.803488
			0.107379 -0.067270 0.991940
			-0.143443 -0.111803 0.983323
			0.680463 0.697789 0.223741
			0.613155 0.789847 0.013548
			0.610408 0.789760 -0.060679
			0.597702 0.793232 -0.116341
			0.525846 0.794484 -0.303778
			0.031997 0.999442 -0.009586
			0.028471 0.999374 -0.020990
			0.309511 0.923575 -0.226298
			0.480135 0.805787 -0.346667
			0.024443 0.999644 0.010746
			-0.000120 0.998359 0.057259
			-0.007715 0.996745 0.080255
			0.143568 0.600007 0.787007
			-0.009318 0.996874 0.078451
			0.148900 -0.216885 0.964774
			0.134999 -0.516130 0.845804
			-0.062696 -0.764041 0.642114
			-0.366727 -0.731487 0.574837
			-0.730347 -0.125664 0.671418
			-0.281597 0.111136 0.953075
			-0.578431 0.262080 0.772484
			-0.128427 -0.150163 0.980284
			-0.052922 -0.036651 0.997926
			0.549457 0.791487 -0.267667
			0.558769 0.792829 -0.243307
			0.732477 0.613496 -0.295126
			0.265137 -0.038856 0.963427
			0.670490 0.411695 0.617212
			-0.004659 -0.112474 0.993644
			-0.035025 -0.273227 0.961312
			0.821751 0.569291 0.025171
			0.900440 0.376583 0.217698
			0.788991 0.609602 -0.076669
			0.776767 0.610920 -0.153003
			0.518864 0.795122 -0.313946
			0.485814 0.802317 -0.346804
			0.027770 0.999549 -0.011395
			0.264231 0.933897 -0.240869
			0.024559 0.999397 -0.024535
			0.014254 0.999402 -0.031501
			0.480048 0.803836 -0.351286
			0.015696 0.999522 0.026639
			-0.007010 0.997520 0.070040
			-0.013296 0.996650 0.080699
			0.080905 0.592585 0.801434
			-0.013884 0.996790 0.078845
			0.140601 -0.217826 0.965807
			0.136205 -0.494140 0.858646
			0.111186 -0.781811 0.613522
			-0.130888 -0.805474 0.577996
			-0.378030 -0.766325 0.519460
			-0.427028 0.307242 0.850441
			-0.368176 -0.411115 0.833925
			-0.612418 0.398511 0.682739
			-0.464359 0.363357 0.807677
			0.192297 -0.364291 0.911216
			0.211174 -0.187921 0.959214
			0.209254 -0.410081 0.887720
			0.141510 -0.395427 0.907531
			0.254218 -0.649063 0.717001
			0.536273 0.793213 -0.288487
			0.892058 0.388276 -0.231244
			0.854781 0.391736 -0.340429
			0.887775 0.247634 -0.387985
			0.701505 0.614807 -0.360421
			0.823505 0.380238 -0.421021
			0.607679 0.009617 0.794124
			0.295904 -0.338301 0.893305
			0.087660 -0.343258 0.935142
			0.180287 -0.533523 0.826348
			0.920428 0.389327 -0.035160
			0.947563 0.065340 0.312817
			0.987577 0.157105 -0.003110
			0.913774 0.390507 -0.111897
			0.513625 0.794815 -0.323201
			0.490874 0.800521 -0.343815
			0.482647 0.804307 -0.346616
			0.017379 0.999798 -0.010141
			0.164975 0.944675 -0.283500
			0.445171 0.812222 -0.376986
			0.366612 0.830657 -0.419053
			0.005937 0.999459 -0.032338
			-0.003987 0.999248 -0.038579
			0.016175 0.983374 -0.180869
			-0.002956 0.999262 0.038311
			-0.014622 0.997169 0.073755
			-0.018453 0.996526 0.081209
			0.131576 0.379695 0.915707
			-0.020398 0.996624 0.079529
			0.260726 -0.474008 0.841034
			0.260406 -0.717907 0.645599
			0.146927 -0.808108 0.570415
			-0.103476 -0.811651 0.574904
			-0.420085 0.411612 0.808767
			-0.463173 0.399932 0.790901
			-0.448251 0.297386 0.842990
			-0.010240 0.145218 0.989347
			-0.004919 -0.794955 0.606649
			-0.147764 0.329652 0.932467
			-0.103433 -0.127462 0.986436
			0.306768 -0.720489 0.621924
			0.370303 -0.637979 0.675173
			0.644003 -0.509316 0.570838
			0.803088 -0.321718 0.501546
			0.580148 -0.599956 0.550891
			0.483378 -0.672118 0.560894
			0.246459 -0.378184 0.892320
			0.363751 -0.864346 0.347263
			0.414261 -0.857995 0.303699
			0.704977 0.577276 -0.412019
			0.962205 0.179023 -0.205213
			0.908679 0.225774 -0.351182
			0.811166 0.381836 -0.442958
			0.902836 0.163005 -0.397891
			0.925540 -0.192060 -0.326325
			0.882223 -0.294580 -0.367296
			0.842759 -0.188717 0.504126
			0.599909 -0.417581 0.682448
			0.406552 -0.671090 0.619963
			0.638501 -0.675559 0.368696
			0.978906 0.171488 -0.111066
			0.929036 -0.351834 0.114478
			0.935423 -0.348465 -0.059627
			0.656192 0.621668 -0.427716
			0.487292 0.803548 -0.341843
			0.464533 0.808449 -0.361412
			-0.009399 0.999874 -0.012807
			0.042455 0.927469 -0.371482
			0.324694 0.847112 -0.420685
			0.176731 0.869440 -0.461347
			0.412538 0.825758 -0.384625
			-0.018847 0.999078 -0.038578
			-0.022970 0.998874 -0.041519
			-0.025694 0.998718 -0.043626
			-0.004207 0.963349 -0.268218
			0.117936 0.903837 -0.411303
			-0.023226 0.998998 0.038266
			-0.025305 0.997256 0.069567
			-0.028469 0.996192 0.082408
			-0.055102 0.514873 0.855494
			0.187036 -0.268267 0.945013
			0.363503 -0.402787 0.840017
			-0.034839 0.996387 0.077448
			0.432036 -0.603607 0.670077
			0.319474 -0.544962 0.775212
			0.360034 -0.768113 0.529508
			0.145336 -0.802953 0.578051
			-0.430589 0.428575 0.794303
			-0.014589 0.343181 0.939156
			-0.117843 0.387071 0.914488
			-0.338784 0.313919 0.886950
			-0.189093 0.427620 0.883960
			0.032174 0.238740 0.970550
			0.465704 -0.051807 0.883423
			0.156605 -0.790771 0.591740
			0.194215 -0.314389 0.929215
			0.401599 -0.820298 0.407223
			0.505318 -0.762971 0.403150
			0.730765 -0.643750 0.227087
			0.878935 -0.229095 0.418317
			0.865796 -0.498783 -0.040168
			0.951867 -0.287804 -0.105442
			0.773671 -0.627691 0.086240
			0.795080 -0.578369 0.182582
			0.655653 -0.718170 0.233134
			0.480214 -0.877111 0.008501
			0.422340 -0.906351 0.012509
			0.799128 0.395255 -0.452955
			0.934958 -0.314013 -0.165073
			0.864181 0.193876 -0.464331
			0.856429 0.148777 -0.494363
			0.841293 -0.177033 -0.510769
			0.812954 -0.536070 -0.227453
			0.742314 -0.484269 -0.463091
			0.785786 -0.511096 -0.348312
			0.759233 -0.550462 0.347214
			0.723494 -0.660487 0.200785
			0.785863 -0.618377 -0.005444
			0.808931 -0.581359 -0.087476
			0.636128 0.631079 -0.443938
			0.759501 0.415630 -0.500409
			0.620177 0.668432 -0.410583
			0.460512 0.822841 -0.332959
			-0.034510 0.999293 -0.014886
			0.398645 0.846309 -0.353332
			0.295806 0.871797 -0.390473
			0.232382 0.891285 -0.389371
			-0.037179 0.998593 -0.037812
			-0.036741 0.998502 -0.040536
			-0.036794 0.998459 -0.041547
			-0.069801 0.972051 -0.224153
			-0.003510 0.917809 -0.397008
			0.140582 0.915637 -0.376624
			-0.048812 0.998441 0.027064
			-0.057289 0.997028 0.051512
			-0.179107 0.759093 0.625858
			0.167979 -0.217641 0.961465
			-0.061854 0.996025 0.064098
			0.593444 -0.692301 0.410541
			0.480300 -0.496691 0.722918
			0.331256 -0.397805 0.855582
			0.317358 -0.801454 0.506908
			-0.155951 0.478077 0.864362
			0.323832 0.263438 0.908698
			0.281502 0.361857 0.888716
			0.213423 0.480995 0.850350
			0.183053 0.468389 0.864351
			0.149535 0.235905 0.960202
			0.206048 0.106118 0.972771
			0.972922 -0.228320 -0.035964
			0.993917 0.034431 -0.104611
			0.850535 0.514306 0.109906
			0.275908 -0.692825 0.666235
			0.342981 -0.428449 0.835940
			0.463956 -0.883530 0.064184
			0.526222 -0.844578 0.098884
			0.651799 -0.758373 0.005313
			0.779955 -0.609142 -0.143589
			0.892783 -0.396937 -0.213025
			0.895613 -0.364417 -0.255101
			0.823509 -0.565810 -0.041147
			0.715720 -0.696295 0.054018
			0.649064 -0.735930 -0.192674
			0.389091 -0.899097 -0.200582
			0.686754 -0.726133 -0.033157
			0.420865 -0.883094 -0.207408
			0.871728 0.183426 -0.454362
			0.790379 0.440775 -0.425461
			0.803499 -0.290511 -0.519608
			0.863971 -0.045566 -0.501475
			0.819161 -0.534601 -0.207792
			0.720255 -0.562681 -0.405738
			0.732892 -0.511576 -0.448508
			0.644842 -0.511574 -0.567866
			0.823565 0.507355 -0.253637
			0.665040 0.622310 -0.412860
			0.479317 0.848565 -0.224039
			-0.057059 0.998296 -0.012187
			0.385478 0.888805 -0.247857
			0.313248 0.908848 -0.275447
			0.253219 0.922953 -0.289894
			-0.051857 0.998107 -0.033071
			-0.048797 0.998107 -0.037425
			-0.116693 0.965954 -0.230901
			-0.113975 0.922704 -0.368276
			0.029135 0.937007 -0.348094
			0.170031 0.941268 -0.291724
			-0.075728 0.996924 0.020189
			-0.078988 0.996225 0.036020
			-0.393202 0.829294 0.397069
			0.147337 -0.016544 0.988948
			-0.311570 0.331679 0.890457
			0.494171 -0.779222 0.385497
			0.898164 -0.094524 0.429380
			0.896799 -0.289682 0.334419
			0.425666 -0.400786 0.811282
			0.524350 -0.211364 0.824853
			0.303036 -0.353901 0.884830
			0.345079 -0.225608 0.911055
			0.413583 -0.213825 0.885002
			0.836475 0.325533 0.440838
			0.577315 0.002827 0.816516
			0.692194 0.361833 0.624455
			0.578369 0.306700 0.755926
			0.413560 0.149432 0.898131
			0.742870 0.435831 0.508129
			0.942581 -0.174303 -0.284886
			0.899766 -0.300224 -0.316682
			0.921844 -0.197874 -0.333240
			0.847498 0.151578 -0.508695
			0.912817 -0.138193 -0.384275
			0.690252 0.377450 -0.617320
			0.686109 0.450767 -0.571019
			0.610850 0.439843 -0.658332
			0.569403 -0.460579 0.680916
			0.517340 -0.846465 -0.125924
			0.530657 -0.844169 -0.076036
			0.577390 -0.807439 -0.121091
			0.804606 -0.560273 -0.196732
			0.865376 -0.402898 -0.297989
			0.572586 -0.765370 -0.293861
			0.381448 -0.907510 -0.175851
			0.461919 -0.872969 -0.156703
			0.914526 0.145437 -0.377478
			0.900513 -0.232813 -0.367253
			0.960863 0.240378 -0.137698
			0.727708 -0.588089 -0.352977
			0.645312 -0.631405 -0.430000
			0.482732 -0.594968 -0.642637
			0.300778 -0.573171 -0.762239
			0.839454 0.506676 -0.196459
			0.948431 0.280320 0.147984
			0.844941 0.519347 0.127879
			0.700377 0.675981 -0.229177
			0.708468 0.705407 0.021768
			0.436712 0.899560 -0.008615
			-0.069580 0.997576 -0.001052
			0.368556 0.926408 -0.077038
			0.307370 0.943177 -0.126255
			0.254400 0.953641 -0.160779
			-0.063012 0.997691 -0.025343
			-0.054898 0.997995 -0.031485
			-0.139816 0.944539 -0.297148
			-0.214222 0.914910 -0.342124
			-0.280975 0.882168 -0.377931
			-0.090591 0.946359 -0.310157
			0.069495 0.959867 -0.271708
			0.181956 0.966689 -0.180015
			-0.080694 0.996428 0.024908
			-0.082728 0.996063 0.031845
			-0.163528 0.487891 0.857450
			-0.408935 0.904649 0.119924
			-0.475520 0.648791 0.594097
			-0.603669 0.720809 0.340615
			0.154776 0.104844 0.982371
			0.596587 0.125049 0.792746
			0.821162 0.170481 0.544636
			0.356371 0.059486 0.932449
			0.280075 -0.305071 0.910214
			0.341886 -0.244611 0.907347
			0.228578 0.071423 0.970902
			0.171693 0.000394 0.985151
			0.634986 0.165697 0.754544
			0.834338 0.349195 0.426548
			0.558060 0.539962 -0.630087
			0.899211 -0.237132 -0.367679
			0.903244 -0.280317 -0.324921
			0.928187 -0.151112 -0.340049
			0.965759 -0.137214 -0.220185
			0.963481 -0.143067 -0.226352
			0.933568 -0.171714 -0.314589
			0.935780 -0.171170 -0.308246
			0.843911 0.068509 -0.532092
			0.909427 -0.099919 -0.403682
			0.914349 -0.174948 -0.365184
			0.908025 -0.212781 -0.360853
			0.521675 0.255193 -0.814083
			0.518143 0.364019 -0.773963
			0.383409 0.328796 -0.863070
			0.509496 0.344961 -0.788299
			0.370878 0.437113 -0.819379
			0.543542 -0.825121 -0.154071
			0.518817 -0.843467 -0.139259
			0.553040 -0.819261 -0.151518
			0.873934 -0.429335 -0.227841
			0.889429 -0.429330 -0.156816
			0.781686 -0.603702 -0.156556
			0.414322 -0.861631 -0.293136
			0.458799 -0.860023 -0.223302
			0.976149 -0.214802 -0.031513
			0.870466 -0.461073 0.172340
			0.955962 -0.141491 0.257131
			0.191103 -0.980714 -0.040995
			0.646445 -0.595262 -0.477254
			-0.577230 -0.507965 -0.639357
			0.849759 0.515536 0.110148
			0.916909 0.297129 0.266443
			0.924889 -0.147190 0.350594
			0.841650 0.491143 0.224506
			0.652658 0.731569 0.197091
			0.372469 0.926029 0.061128
			-0.078546 0.996881 0.007601
			0.319258 0.947666 -0.001607
			0.272739 0.960781 -0.050124
			0.229453 0.969198 -0.089479
			-0.072304 0.997273 -0.014823
			-0.184587 0.957458 -0.221816
			-0.288816 0.924540 -0.248617
			-0.328800 0.852217 -0.406960
			-0.213160 0.938881 -0.270305
			-0.302720 0.921760 -0.242319
			-0.381025 0.842044 -0.381814
			-0.383297 0.864686 -0.324657
			-0.046297 0.971988 -0.230424
			0.088639 0.977416 -0.191838
			0.146250 0.979642 -0.137526
			-0.083364 0.996174 0.026227
			-0.139463 0.644260 0.751984
			-0.384598 0.921166 0.059476
			-0.635221 0.762737 0.121352
			-0.363041 0.759845 0.539293
			-0.551529 0.794237 0.254958
			0.165716 0.114482 0.979506
			0.375832 0.143930 0.915442
			0.335538 -0.243771 0.909939
			0.378134 -0.239410 0.894258
			0.230952 -0.103166 0.967480
			0.231436 0.238281 0.943218
			0.138588 0.142072 0.980106
			0.009014 0.091711 0.995745
			0.052774 0.076954 0.995637
			0.583446 0.780724 -0.223744
			0.063668 0.431184 -0.900015
			0.900862 -0.184085 -0.393141
			0.929036 -0.306467 -0.207292
			0.951529 -0.172376 -0.254713
			0.943431 -0.110581 -0.312586
			0.947110 -0.065384 -0.314178
			0.950432 -0.097518 -0.295244
			0.968543 -0.090912 -0.231644
			0.981922 -0.077575 -0.172659
			0.962209 -0.162887 -0.218225
			0.973789 -0.104630 -0.201957
			0.745586 -0.043094 -0.665015
			0.899874 -0.198981 -0.388114
			0.911001 -0.157641 -0.381087
			0.924930 -0.244483 -0.291087
			0.927934 -0.201205 -0.313775
			0.283938 0.219111 -0.933472
			0.393485 0.368496 -0.842247
			0.237312 0.349776 -0.906278
			0.236089 0.337105 -0.911385
			0.008753 0.533372 -0.845836
			0.393598 0.400787 -0.827315
			0.239488 0.463514 -0.853112
			0.067473 0.527562 -0.846833
			0.552066 -0.806610 -0.211197
			0.516755 -0.838566 -0.172545
			0.543082 -0.822556 -0.168711
			0.893390 -0.429980 -0.130278
			0.937975 -0.313723 -0.147581
			0.781106 -0.607028 -0.146253
			0.509803 -0.823305 -0.249538
			0.894516 -0.356169 0.270155
			0.593678 -0.457659 0.661887
			0.711460 -0.593354 0.376505
			0.760608 -0.628008 0.164564
			0.871442 -0.489108 0.036910
			0.600917 -0.799213 -0.012543
			0.820657 -0.415870 0.391884
			-0.341751 0.029133 -0.939339
			-0.328923 -0.939545 -0.095213
			-0.034874 0.984469 -0.172059
			-0.884216 0.125286 0.449961
			0.950536 0.253000 0.180203
			0.850611 0.500768 0.160289
			0.905555 -0.167522 0.389753
			0.961708 -0.061496 0.267088
			0.834128 -0.364246 0.414193
			0.852774 0.507012 0.125359
			0.691872 0.707618 0.143491
			0.353076 0.933692 0.059633
			0.312028 0.950001 0.011681
			-0.083354 0.996440 0.012671
			0.270778 0.962204 -0.029049
			0.230592 0.970868 -0.065141
			0.169270 0.978544 -0.117468
			-0.351209 0.927354 -0.129099
			-0.485819 0.807065 -0.335598
			-0.554507 0.784617 -0.277305
			-0.185901 0.964709 -0.186488
			-0.275091 0.950438 -0.144888
			-0.363914 0.909388 -0.201444
			-0.464529 0.840959 -0.277488
			-0.036931 0.977467 -0.207833
			0.023797 0.977581 -0.209212
			0.043826 0.977600 -0.205860
			-0.267110 0.744372 0.612016
			-0.450939 0.891668 -0.039775
			-0.653168 0.757213 -0.000738
			-0.637382 0.767334 0.070309
			-0.488277 0.778560 0.394246
			-0.621123 0.770305 0.144350
			-0.093990 0.275997 0.956552
			0.289351 -0.213094 0.933203
			0.376534 -0.230935 0.897157
			0.319783 -0.252817 0.913139
			0.250512 -0.099951 0.962940
			0.066214 0.047046 0.996696
			-0.438483 0.780219 -0.446084
			-0.603080 0.561596 0.566484
			-0.676306 0.512986 0.528636
			-0.074581 0.256413 0.963686
			0.047943 0.175312 0.983345
			-0.057979 0.155541 0.986127
			-0.148674 0.439876 -0.885667
			0.968650 -0.181360 -0.169779
			0.975559 -0.148055 -0.162373
			0.978808 -0.068325 -0.193048
			0.962517 -0.053060 -0.265981
			0.977912 -0.003517 -0.208987
			0.983616 -0.045083 -0.174548
			0.987255 -0.032441 -0.155802
			0.974746 -0.037179 -0.220202
			0.960373 -0.173154 -0.218408
			0.962005 -0.146693 -0.230276
			0.949653 -0.045694 -0.309953
			0.953796 -0.119432 -0.275697
			0.907776 -0.250993 -0.336073
			0.493595 0.186997 -0.849351
			0.773739 -0.194666 -0.602855
			0.887613 -0.209636 -0.410117
			0.931383 -0.261726 -0.253030
			0.935214 -0.298604 -0.190288
			0.954248 -0.269835 -0.128842
			0.948349 -0.242658 -0.204330
			0.958661 -0.247176 -0.140972
			0.221842 0.388688 -0.894264
			0.241788 0.393463 -0.886976
			-0.178575 0.532356 -0.827471
			-0.073487 0.510159 -0.856935
			0.307414 0.430844 -0.848452
			0.400979 0.397625 -0.825294
			0.225020 0.152421 -0.962358
			0.465496 0.190297 -0.864349
			-0.025991 0.275035 -0.961083
			-0.077793 0.323899 -0.942888
			0.599202 -0.789367 -0.133626
			0.540493 -0.833885 -0.111818
			0.561879 -0.820473 -0.105432
			0.884113 -0.438097 -0.162525
			0.923577 -0.349605 -0.157422
			0.962219 -0.203166 -0.181266
			0.798266 -0.586329 -0.137803
			0.853267 -0.416351 0.313986
			0.530936 -0.841227 0.102196
			0.579155 -0.805965 0.122477
			0.658334 -0.712724 0.242118
			0.474554 -0.873364 0.109699
			0.613783 -0.789474 -0.001072
			-0.558682 -0.819849 0.125385
			-0.165650 0.277201 -0.946425
			0.156781 -0.835688 0.526351
			0.257321 0.354078 0.899119
			0.924928 0.155537 0.346868
			0.094645 0.894453 0.437031
			-0.002039 0.982972 -0.183744
			0.176005 0.188070 0.966257
			0.925786 0.374943 0.048346
			0.984508 -0.052326 0.167350
			0.989315 0.141096 0.036718
			0.852242 0.522589 0.024161
			0.896653 -0.333514 0.291172
			0.622321 -0.672620 0.400374
			0.671794 -0.674104 0.307047
			0.849576 0.527341 -0.011505
			0.630227 0.776084 0.022519
			0.304910 0.952334 -0.009480
			0.270666 0.961891 -0.038810
			0.234712 0.969907 -0.064731
			0.168846 0.978710 -0.116694
			0.057474 0.976330 -0.208510
			-0.650207 0.739270 -0.175245
			-0.624700 0.751027 -0.213795
			-0.584258 0.773826 -0.244615
			-0.162188 0.967704 -0.192988
			-0.229321 0.964453 -0.131307
			-0.319661 0.942035 -0.101913
			-0.420851 0.895809 -0.142869
			-0.541997 0.815992 -0.200987
			-0.074168 0.963193 -0.258376
			-0.053622 0.961939 -0.267953
			-0.037742 0.961926 -0.270690
			-0.458727 0.433545 0.775634
			-0.553914 0.771947 0.311892
			-0.657329 0.751335 -0.058429
			-0.641256 0.765369 0.054785
			-0.628756 0.767968 0.122027
			0.025017 -0.046485 0.998606
			0.255389 -0.227687 0.939647
			0.320327 -0.158343 0.933980
			0.131800 -0.015477 0.991155
			-0.038123 0.093168 0.994920
			-0.404143 0.397182 -0.823963
			-0.498214 0.388461 -0.775165
			-0.467122 0.877442 0.109057
			-0.490612 0.816859 0.303382
			-0.302950 0.436018 0.847414
			-0.246672 0.205305 0.947102
			0.983604 -0.174844 -0.044192
			0.992092 -0.111163 -0.058281
			0.997887 -0.043800 -0.047992
			0.991447 -0.018258 -0.129229
			0.983930 0.015412 -0.177889
			0.990254 0.040813 -0.133157
			0.984006 0.049813 -0.171030
			0.988589 0.011756 -0.150176
			0.972395 0.009417 -0.233149
			0.942555 0.001801 -0.334047
			0.941938 -0.195177 -0.273239
			0.943691 -0.156698 -0.291363
			0.924894 -0.071815 -0.373381
			0.892334 -0.010561 -0.451252
			0.930781 -0.138167 -0.338461
			0.924520 -0.310204 -0.221444
			0.889717 -0.267669 -0.369805
			0.936860 -0.298014 -0.182977
			0.379368 0.271089 -0.884642
			0.787971 0.409782 -0.459543
			0.707292 -0.178850 -0.683923
			0.299177 0.390145 -0.870793
			0.814889 -0.335358 -0.472749
			0.935424 -0.341709 -0.090642
			0.945340 -0.326075 0.002537
			0.954849 -0.288958 -0.069035
			0.972601 -0.231579 0.020468
			0.201032 0.470318 -0.859295
			-0.279504 0.498196 -0.820779
			-0.082776 0.446306 -0.891044
			-0.107104 0.377197 -0.919919
			0.387323 0.265524 -0.882881
			0.454690 0.210955 -0.865306
			0.196516 0.683794 -0.702714
			-0.087488 0.324832 -0.941717
			0.473211 -0.095940 -0.875709
			-0.167864 0.404606 -0.898953
			-0.495969 0.533488 -0.685131
			0.539774 -0.841624 -0.017673
			0.555439 -0.830901 -0.033051
			0.866489 -0.462307 -0.188333
			0.920761 -0.310384 -0.236350
			0.751391 -0.656571 -0.065765
			0.880370 -0.462832 -0.103606
			0.539739 -0.839920 0.056716
			0.591372 -0.804568 0.054315
			0.389041 -0.898745 0.202249
			0.397150 -0.910492 0.115227
			0.507995 -0.860634 0.035356
			0.299869 -0.612048 -0.731763
			0.273596 0.178227 0.945188
			0.043501 0.478792 -0.876850
			0.188717 0.956661 0.221780
			0.936009 0.346321 -0.062839
			0.984409 -0.162875 0.066417
			0.992228 -0.089812 -0.086127
			0.984981 0.146958 -0.090639
			0.841171 0.535337 -0.076449
			0.804929 -0.590334 0.059964
			0.403015 -0.913832 0.049898
			0.834072 0.539305 -0.116074
			0.606140 0.792620 -0.065939
			0.272295 0.961148 -0.045273
			0.244082 0.967623 -0.064265
			0.177275 0.978406 -0.106283
			0.052367 0.978081 -0.201535
			-0.022942 0.963611 -0.266322
			-0.651400 0.741187 -0.162234
			-0.648327 0.738622 -0.184690
			-0.635853 0.750696 -0.179296
			-0.123230 0.962705 -0.240861
			-0.173517 0.966791 -0.187633
			-0.278442 0.957833 -0.070898
			-0.365078 0.930018 -0.042250
			-0.491573 0.868604 -0.062318
			-0.609062 0.783468 -0.123372
			-0.089356 0.955163 -0.282274
			-0.073986 0.956925 -0.280750
			-0.052345 0.959702 -0.276101
			-0.156179 0.047905 0.986566
			-0.733688 0.580460 0.353224
			-0.377105 0.319254 0.869407
			-0.653827 0.754108 -0.061895
			-0.642083 0.765529 0.041180
			-0.756618 0.642427 0.121726
			-0.019917 0.002747 0.999798
			0.053644 -0.167499 0.984412
			0.196599 -0.169838 0.965662
			0.113356 -0.077818 0.990502
			-0.261135 -0.009359 0.965257
			-0.432163 0.351065 -0.830656
			-0.499254 0.217041 -0.838831
			-0.727454 0.189624 -0.659434
			-0.881979 0.452194 0.132792
			-0.386837 0.235055 0.891687
			-0.391029 0.237931 0.889092
			-0.534073 0.154559 0.831191
			0.988348 -0.151235 0.017240
			0.994448 -0.074509 0.074311
			0.999099 0.011758 0.040773
			0.995747 0.029703 -0.087210
			0.982067 0.041770 -0.183849
			0.992123 0.068164 -0.105094
			0.985259 0.072311 -0.155039
			0.972513 0.073260 -0.221023
			0.965356 0.029197 -0.259296
			0.925697 0.018425 -0.377817
			0.914295 -0.220872 -0.339531
			0.917627 -0.172982 -0.357825
			0.906760 -0.125960 -0.402392
			0.900003 -0.072513 -0.429809
			0.866706 0.011507 -0.498686
			0.853812 0.003732 -0.520568
			0.863107 -0.036396 -0.503708
			0.830986 -0.007602 -0.556242
			0.927145 -0.365328 -0.083293
			0.905266 -0.354086 -0.234769
			0.935461 -0.351896 -0.032892
			-0.009785 0.036086 -0.999301
			0.034085 0.190239 -0.981146
			0.821405 -0.429789 -0.374934
			0.834812 -0.304548 -0.458627
			0.859470 -0.418558 -0.293465
			0.572932 -0.299824 -0.762794
			0.016541 0.448327 -0.893717
			-0.187837 0.308844 -0.932380
			0.907426 -0.400978 0.125679
			0.900948 -0.385805 0.198614
			0.934210 -0.328895 0.138130
			0.950131 -0.251414 0.184503
			0.981327 -0.170293 0.089431
			0.164595 0.492091 -0.854842
			-0.229298 0.327071 -0.916759
			-0.097849 0.442045 -0.891640
			-0.583848 0.536243 -0.609561
			0.128037 0.154052 -0.979732
			0.324938 -0.139406 -0.935404
			0.479752 0.225819 -0.847847
			-0.055723 0.799864 -0.597589
			-0.027190 0.776390 -0.629665
			0.063224 0.921774 -0.382538
			0.182528 0.947888 -0.261137
			0.047063 0.979785 -0.194440
			-0.239250 0.808019 -0.538391
			-0.803049 0.593754 -0.050677
			-0.501853 0.860108 -0.091423
			0.534839 -0.844587 0.024899
			0.550027 -0.835083 0.010321
			0.860958 -0.490082 -0.136280
			0.801925 -0.533196 -0.269479
			0.887421 -0.405111 -0.219931
			0.910277 -0.267663 -0.315836
			0.756313 -0.652547 -0.046628
			0.854059 -0.511616 -0.093978
			0.551220 -0.834202 0.016239
			0.235746 -0.969143 -0.072007
			0.363137 -0.929458 -0.065113
			0.476040 -0.875365 -0.084393
			0.848299 0.529248 0.016906
			0.921474 0.354282 -0.159277
			0.947419 -0.308505 -0.084978
			0.982259 -0.049798 -0.180794
			0.899087 -0.358247 -0.251599
			0.966739 0.147363 -0.209045
			0.813369 0.550358 -0.188513
			0.746730 -0.648257 -0.148849
			0.331226 -0.935870 -0.120151
			0.788078 0.552325 -0.271792
			0.573749 0.803050 -0.161004
			0.248586 0.964964 -0.083964
			0.202912 0.972390 -0.115258
			0.065665 0.978896 -0.193520
			-0.029868 0.966576 -0.254634
			-0.038578 0.962807 -0.267421
			-0.643071 0.749125 -0.158967
			-0.642611 0.743075 -0.186791
			-0.647991 0.744067 -0.162701
			-0.103680 0.955104 -0.277538
			-0.124810 0.960066 -0.250390
			-0.223715 0.967825 -0.115180
			-0.312204 0.949832 -0.018672
			-0.411712 0.910522 0.037982
			-0.528935 0.841519 0.109881
			-0.738493 0.670120 -0.074615
			-0.090040 0.955108 -0.282245
			-0.079715 0.956649 -0.280121
			-0.061870 0.959421 -0.275105
			-0.757938 0.439155 0.482362
			-0.851205 0.490024 0.187955
			-0.474172 0.167223 0.864406
			-0.751757 0.489025 0.442398
			-0.652663 0.755693 -0.054397
			-0.766718 0.641783 0.016045
			-0.865254 0.498000 0.057717
			-0.131992 -0.133260 0.982252
			-0.236464 -0.138467 0.961723
			-0.453426 -0.190184 0.870767
			-0.478692 -0.105703 0.871597
			-0.553706 0.068841 0.829862
			-0.588193 0.031388 0.808111
			-0.409135 0.256704 -0.875621
			-0.388118 0.210474 -0.897254
			-0.920797 0.267929 0.283455
			-0.849542 -0.005879 -0.527489
			-0.991502 -0.129560 0.011702
			-0.599525 0.391139 0.698269
			-0.489567 0.291965 0.821633
			-0.663237 0.122613 0.738298
			-0.720390 0.139807 0.679332
			0.973556 -0.125833 0.190670
			0.980796 -0.019463 0.194062
			0.994067 0.046854 0.098162
			0.997402 0.058560 -0.041959
			0.949515 0.057563 -0.308396
			0.996444 0.076101 -0.036155
			0.990623 0.079794 -0.110901
			0.982908 0.084492 -0.163566
			0.971528 0.099178 -0.215168
			0.942487 0.096183 -0.320104
			0.913380 0.037014 -0.405421
			0.906505 -0.217447 -0.361891
			0.884587 -0.163401 -0.436814
			0.902993 -0.105170 -0.416585
			0.882591 -0.085355 -0.462328
			0.842587 0.032697 -0.537567
			0.804541 0.013861 -0.593736
			0.817304 -0.050237 -0.574013
			0.790795 -0.015776 -0.611877
			0.904855 -0.425719 0.000456
			0.894728 -0.427223 -0.130166
			0.895803 -0.417319 0.152914
			-0.492765 -0.181497 -0.851024
			-0.262978 -0.238271 -0.934917
			-0.422618 -0.145845 -0.894496
			0.843243 -0.492040 -0.216422
			0.842100 -0.381407 -0.381308
			0.859164 -0.481226 -0.173949
			0.142643 -0.538839 -0.830244
			0.686432 -0.466363 -0.557957
			-0.183853 0.008687 -0.982916
			-0.362375 -0.116868 -0.924676
			0.820149 -0.454717 0.347259
			0.714776 -0.464686 0.522649
			0.874316 -0.409148 0.261093
			0.819117 -0.424139 0.386203
			0.835643 -0.360834 0.414125
			0.883897 -0.344378 0.316432
			0.899349 -0.273383 0.341223
			0.859490 -0.157725 0.486209
			-0.449581 0.469280 -0.760035
			-0.371624 0.254287 -0.892879
			-0.442524 0.776890 -0.447901
			-0.816187 0.575591 0.050331
			-0.674358 0.735359 -0.066995
			-0.092294 -0.374268 -0.922716
			-0.387510 0.078129 -0.918549
			-0.255127 0.958013 -0.130852
			-0.231251 0.929810 -0.286314
			0.066303 0.991162 -0.114899
			0.057758 0.994064 -0.092199
			-0.070534 0.993286 0.091697
			-0.228882 0.945337 0.232275
			-0.621975 0.718351 0.311639
			0.496800 -0.866688 -0.045171
			0.518785 -0.849038 -0.099981
			0.842079 -0.512164 -0.169088
			0.849279 -0.499518 -0.170900
			0.907552 -0.293008 -0.300825
			0.882804 -0.416712 -0.216814
			0.908349 -0.244217 -0.339499
			0.744505 -0.649040 -0.156398
			0.033759 -0.960809 -0.275148
			0.120786 -0.954877 -0.271333
			0.261551 -0.921840 -0.286013
			0.384602 -0.891301 -0.240136
			0.878753 0.329026 -0.345739
			0.954799 -0.065654 -0.289909
			0.813057 -0.392871 -0.429641
			0.505135 -0.427385 -0.749787
			0.823210 -0.172275 -0.540969
			0.710809 0.568070 -0.414786
			0.524633 -0.709206 -0.470943
			0.160118 -0.946264 -0.280975
			0.694722 0.534640 -0.481166
			0.463917 0.834991 -0.295925
			0.119499 0.972493 -0.199943
			-0.014184 0.969194 -0.245889
			-0.042750 0.965430 -0.257133
			-0.049715 0.962603 -0.266316
			-0.717032 0.676440 -0.168211
			-0.712306 0.665090 -0.224222
			-0.753626 0.634368 -0.172122
			-0.097609 0.955307 -0.279034
			-0.101074 0.956988 -0.271951
			-0.147117 0.970808 -0.189445
			-0.250381 0.967700 -0.029415
			-0.331010 0.941844 0.057984
			-0.407909 0.904812 0.122170
			-0.771942 0.586216 0.245877
			-0.440950 0.868300 0.227196
			-0.593534 0.660889 0.459285
			-0.795639 0.530447 0.292547
			-0.776848 0.629472 -0.016494
			-0.090684 0.955076 -0.282145
			-0.085421 0.956344 -0.279481
			-0.071388 0.959047 -0.274102
			-0.853807 0.494675 0.162203
			-0.862549 0.287156 0.416594
			-0.802025 -0.018302 0.597010
			-0.781268 0.618493 -0.084182
			-0.863103 0.502896 -0.046358
			-0.864829 0.499931 0.046254
			-0.729782 -0.135606 0.670096
			-0.653047 -0.197488 0.731114
			-0.684353 -0.107313 0.721211
			-0.715452 -0.002439 0.698657
			-0.748071 0.059673 0.660930
			-0.734646 0.027200 0.677906
			-0.915912 0.206246 0.344337
			-0.854372 0.242499 -0.459611
			-0.971811 -0.157139 -0.175756
			-0.993618 -0.040201 0.105395
			-0.937058 -0.285442 0.201111
			-0.726927 -0.212000 0.653172
			-0.847390 0.085475 0.524047
			-0.709214 0.289110 0.642986
			-0.612631 0.151178 0.775776
			-0.714762 0.032399 0.698617