<?xml version="1.0"?>
<VTKFile type="PolyData" version="0.1" byte_order="LittleEndian" compressor="vtkZLibDataCompressor">
	<PolyData>
		<Piece NumberOfPoints="18163" NumberOfVerts="0" NumberOfLines="0" NumberOfStrips="0" NumberOfPolys="36458">
		<PointData Normals="Normals">
		<DataArray type="Float32" Name="Normals" NumberOfComponents="3" format="ascii">
			-0.597074 0.247707 -0.762984
			-0.638057 -0.124987 -0.759777
			-0.913887 0.375544 -0.154201
			-0.913429 0.376563 -0.154430
			-0.201537 0.262800 -0.943567
			0.685544 -0.039801 -0.726943
			-0.995215 -0.044049 0.087213
			0.145409 0.499648 -0.853937
			-0.962960 -0.257768 -0.079143
			-0.914601 0.375367 -0.150349
			-0.914623 0.375084 -0.150919
			-0.913275 0.376675 -0.155064
			-0.104678 0.297233 -0.949050
			0.801582 -0.156347 -0.577080
			0.569638 0.339894 -0.748321
			0.724530 0.075618 -0.685083
			-0.959385 0.159780 0.232488
			-0.817469 -0.329707 0.472269
			-0.829638 -0.104222 0.548487
			-0.847409 0.458049 -0.268494
			-0.168714 0.875551 -0.452709
			0.596520 0.624387 -0.504286
			0.535841 0.518846 -0.666088
			0.511571 0.435751 -0.740552
			-0.989024 0.020085 0.146386
			-0.896048 -0.151235 0.417404
			-0.969967 0.197912 0.141405
			-0.914162 0.375656 -0.152284
			-0.915373 0.374087 -0.148833
			-0.912509 0.378469 -0.155206
			0.475066 0.310043 -0.823520
			0.892691 -0.082321 -0.443086
			0.611662 0.380193 -0.693775
			0.827501 0.235927 -0.509490
			-0.741329 -0.269879 0.614488
			-0.815545 -0.255368 0.519302
			-0.813559 -0.212224 0.541370
			-0.878918 -0.169949 0.445669
			-0.816557 -0.143027 0.559265
			-0.875633 0.475409 -0.085167
			-0.970308 0.212647 -0.115258
			-0.128184 0.991692 0.010748
			0.654641 0.619958 -0.432547
			0.658276 0.588971 -0.468812
			0.719606 0.411220 -0.559523
			0.671025 0.399529 -0.624581
			-0.948175 -0.225306 0.224059
			-0.842901 -0.339111 0.417757
			-0.828759 -0.288415 0.479557
			-0.979468 -0.055566 0.193792
			-0.913821 0.376763 -0.151595
			-0.893212 -0.066307 0.444719
			-0.914612 0.375992 -0.148714
			-0.945735 0.260413 0.194344
			0.513429 0.553961 -0.655376
			-0.913161 0.377927 -0.152669
			-0.664716 0.562341 -0.491859
			0.933521 -0.026931 -0.357509
			0.930838 -0.019782 -0.364897
			0.705586 0.292304 -0.645529
			0.727566 0.297424 -0.618212
			0.914839 0.211657 -0.343905
			0.903661 0.237385 -0.356434
			-0.860587 -0.167754 0.480884
			-0.967479 -0.252932 -0.003311
			-0.941597 -0.092533 0.323779
			-0.825572 -0.370387 0.425728
			-0.970655 -0.227769 0.077140
			-0.999936 -0.010255 -0.004826
			-0.819372 -0.186730 0.541998
			-0.918878 0.326529 -0.221453
			-0.935562 0.243212 -0.256071
			-0.857600 0.507460 0.083706
			-0.948384 -0.315709 0.029916
			-0.075663 0.580068 0.811046
			0.681219 0.475552 0.556589
			0.561092 0.660280 0.499206
			0.319952 0.893569 0.314906
			0.544448 0.770313 -0.331955
			0.670303 0.711100 -0.212202
			0.802481 0.554013 -0.221570
			0.665807 0.683786 -0.298559
			0.857032 0.255323 -0.447557
			0.931040 0.304289 -0.201426
			0.861772 0.234452 -0.449869
			-0.723569 -0.497219 0.478770
			-0.730584 -0.464966 0.500053
			-0.825145 -0.412956 0.385491
			-0.802881 -0.222636 0.553006
			-0.795812 -0.058531 0.602708
			-0.914162 0.376801 -0.149430
			-0.924309 0.288438 0.249914
			0.909610 0.015385 -0.415178
			-0.913013 0.378360 -0.152481
			0.570736 0.474016 -0.670499
			0.913934 -0.020401 -0.405350
			0.798291 0.046043 -0.600510
			0.699183 0.241742 -0.672832
			0.858600 0.136812 -0.494053
			0.918748 0.066426 -0.389216
			0.995545 -0.051647 -0.078878
			0.900850 -0.315157 -0.298573
			0.995121 0.075819 -0.063128
			-0.995551 0.034240 -0.087789
			-0.986336 -0.028519 -0.162262
			-0.905064 0.105138 -0.412074
			-0.926857 0.320564 0.195382
			-0.854343 -0.002357 0.519705
			-0.889330 -0.347117 0.297661
			-0.915706 -0.401284 0.021310
			-0.944002 -0.313064 -0.104169
			-0.999951 0.007828 0.006084
			-0.979685 -0.144236 0.139331
			-0.845092 0.010873 -0.534511
			-0.917958 0.238072 -0.317293
			-0.915152 0.351453 -0.197427
			-0.720086 -0.175794 -0.671247
			-0.896094 -0.167429 -0.411075
			-0.875748 0.480587 0.045847
			-0.329257 0.594719 0.733416
			-0.691370 -0.536837 -0.483542
			-0.806691 -0.584059 0.090134
			-0.724478 -0.492898 0.481853
			0.427794 0.251306 0.868238
			0.340443 0.367964 0.865275
			0.035872 0.446613 0.894008
			-0.000708 0.468312 0.883563
			0.321337 0.858485 0.399682
			0.568697 0.822510 0.007833
			0.870649 0.484574 0.084609
			0.812855 0.582416 -0.007700
			0.417357 0.901292 0.116125
			0.972863 0.229756 -0.027382
			-0.735379 -0.542274 0.406395
			-0.802009 -0.506736 0.316228
			-0.813451 -0.511906 0.276133
			-0.798044 -0.137646 0.586669
			-0.954085 -0.090864 0.285421
			-0.930605 -0.190157 0.312754
			-0.892877 0.086032 0.442007
			-0.881889 -0.159536 0.443645
			-0.848381 0.510718 0.139345
			0.763754 0.119956 -0.634263
			0.891806 0.089982 -0.443380
			0.617145 0.048982 -0.785323
			-0.131821 0.960335 -0.245722
			0.666545 0.157982 -0.728533
			0.684038 0.328025 -0.651531
			0.757076 0.050825 -0.651347
			0.661904 -0.238753 -0.710549
			0.981181 -0.012019 0.192716
			0.966623 -0.226914 0.118951
			0.887237 -0.430574 0.165578
			0.721533 -0.690674 -0.048581
			0.587112 -0.454991 -0.669540
			0.700062 -0.634885 -0.326855
			0.657385 -0.731915 -0.179290
			0.939182 0.222419 0.261661
			0.943123 0.318578 0.095013
			-0.921861 0.387496 -0.004410
			-0.922266 -0.250210 0.294652
			-0.453033 -0.221830 0.863454
			-0.788549 0.560457 0.253137
			-0.805162 0.140537 0.576162
			-0.866530 -0.463281 0.185733
			-0.892574 -0.432458 -0.127640
			-0.849972 -0.221431 0.478034
			-0.856313 -0.516154 -0.017680
			-0.579452 -0.551418 0.600145
			-0.818809 -0.084705 -0.567782
			-0.493018 -0.399928 -0.772652
			-0.540806 -0.378249 -0.751303
			-0.697787 -0.111311 -0.707604
			-0.897905 0.297078 -0.324826
			-0.632500 -0.090911 -0.769206
			-0.901347 0.349110 -0.256310
			-0.474228 -0.453022 -0.754903
			-0.426782 0.586066 0.688755
			-0.912037 0.407091 -0.049647
			-0.390666 0.543878 0.742682
			0.154675 0.259600 0.953249
			-0.513502 -0.701622 -0.494007
			-0.670644 -0.736687 -0.086773
			-0.683511 -0.655450 0.321246
			0.172067 0.420629 0.890766
			0.145437 0.286933 0.946846
			-0.028737 0.423982 0.905214
			0.141145 0.459872 0.876696
			0.088913 0.603031 0.792747
			0.158630 0.841680 0.516150
			0.891303 0.429392 0.145609
			0.558032 0.818326 0.137634
			0.652817 0.725070 0.219322
			0.418481 0.907234 0.042424
			0.685685 0.718627 0.115810
			-0.032775 0.902422 0.429604
			-0.129610 0.981468 0.141141
			-0.667767 -0.695467 0.265356
			-0.706049 -0.642231 0.298385
			-0.686101 -0.706285 0.174434
			-0.993932 -0.109988 -0.001405
			-0.938287 0.299965 0.172156
			-0.922162 0.381149 0.065902
			-0.965995 -0.229962 0.118204
			-0.983441 -0.180962 -0.009820
			-0.936026 0.227612 0.268419
			-0.990301 0.059452 0.125577
			-0.980863 -0.181460 0.070572
			-0.869512 0.482359 -0.106204
			-0.402611 0.856636 -0.322614
			0.392216 0.438987 -0.808367
			0.481598 -0.017860 -0.876210
			0.324258 0.166426 -0.931214
			0.356843 -0.029435 -0.933701
			0.425620 0.120491 -0.896844
			0.376676 0.032570 -0.925772
			0.427119 -0.031053 -0.903662
			0.522706 -0.385490 -0.760379
			0.563638 -0.639436 -0.522909
			0.814459 -0.259346 0.519034
			0.606310 -0.712681 0.352809
			0.575045 -0.817812 0.022514
			0.708597 -0.678293 -0.194443
			0.794821 -0.537264 -0.282147
			0.542893 -0.837854 -0.057162
			0.676283 -0.731293 -0.088610
			0.833704 0.300139 0.463523
			0.859026 0.439484 0.262542
			-0.864650 -0.240935 0.440829
			-0.791017 -0.167897 0.588306
			-0.825247 0.533677 0.184815
			-0.027292 -0.513784 0.857485
			-0.027138 -0.697448 0.716121
			-0.018939 -0.168740 0.985479
			0.545652 0.268930 0.793688
			0.664595 0.055325 0.745153
			-0.732655 -0.679363 -0.041022
			-0.732984 -0.679960 -0.019705
			-0.394777 -0.891992 0.220229
			-0.226285 -0.434181 0.871942
			0.097974 0.182253 0.978358
			-0.515712 -0.475422 -0.712752
			-0.446196 -0.267950 -0.853880
			-0.569414 -0.327382 -0.754048
			-0.685705 -0.425915 -0.590258
			-0.453751 -0.451580 -0.768235
			-0.371325 -0.563829 -0.737709
			-0.396669 -0.593947 -0.699915
			-0.629184 -0.007803 -0.777217
			-0.465802 -0.138244 -0.874024
			-0.519588 -0.229082 -0.823134
			-0.758174 0.137380 -0.637416
			-0.890785 0.353439 -0.285627
			-0.764231 0.175155 -0.620703
			-0.613790 0.416311 0.670780
			-0.907435 0.351887 -0.229646
			-0.927497 0.370141 -0.052384
			-0.228436 0.172584 0.958140
			0.076275 0.307658 0.948435
			0.035824 0.330421 0.943153
			0.039743 0.323351 0.945444
			-0.452885 -0.738275 -0.499846
			-0.629932 -0.776311 -0.022952
			-0.043293 0.422584 0.905289
			0.226024 0.401367 0.887591
			0.477000 0.635456 0.607179
			0.409679 0.680195 0.607864
			-0.066332 0.993365 -0.093950
			-0.091070 0.991932 0.088188
			0.225862 0.970199 0.087752
			-0.044762 0.998851 0.017141
			0.059085 0.997386 -0.041592
			-0.239371 0.959437 0.148936
			0.102437 0.968133 0.228530
			-0.272489 0.948702 0.160358
			-0.280255 0.959853 -0.011840
			-0.652497 -0.709206 0.266973
			-0.610824 -0.690623 0.387213
			-0.615579 -0.762587 0.198804
			-0.513993 -0.855421 0.063764
			-0.952870 -0.301906 -0.029850
			-0.996760 -0.079402 0.012845
			-0.951259 0.013320 0.308104
			-0.981269 -0.125394 0.146242
			-0.938916 0.039520 0.341869
			-0.999492 0.030283 0.009958
			-0.967951 -0.021228 0.250241
			-0.955413 0.294659 0.019019
			-0.966971 0.235649 0.097141
			-0.314581 0.416024 -0.853207
			-0.839520 0.484707 -0.245491
			0.361708 0.229264 -0.903662
			0.431378 0.221156 -0.874645
			0.370033 0.212193 -0.904461
			0.395684 0.251320 -0.883330
			0.142378 0.194550 -0.970504
			0.319162 -0.037188 -0.946970
			0.766292 -0.197826 -0.611278
			0.039391 -0.820293 0.570585
			0.282438 -0.942635 0.177958
			-0.262611 -0.824558 0.501139
			0.742415 -0.629730 -0.228604
			0.855388 -0.353136 -0.378955
			0.483038 -0.875600 -0.000060
			0.644301 -0.764264 0.027865
			0.660905 -0.748986 -0.047160
			-0.184835 -0.949153 0.254843
			-0.012677 -0.764666 0.644302
			0.003732 0.063719 0.997961
			-0.829988 -0.124723 -0.543658
			-0.687942 -0.492897 -0.532717
			-0.884816 -0.244164 -0.396843
			-0.694114 -0.525861 -0.491605
			-0.529219 -0.697571 -0.483034
			-0.259396 -0.696721 -0.668800
			-0.237671 -0.616351 -0.750749
			-0.255486 -0.721048 -0.644062
			-0.371103 -0.129322 -0.919543
			-0.587381 -0.200540 -0.784071
			-0.811673 -0.021927 -0.583700
			-0.659368 0.118666 -0.742396
			-0.813425 0.122504 -0.568623
			-0.914092 0.326305 -0.240750
			-0.911727 0.391098 -0.125683
			-0.836706 0.070811 -0.543055
			-0.911273 0.402910 -0.085112
			-0.775563 0.239853 0.583929
			0.231911 0.368038 0.900425
			0.392771 0.038107 0.918847
			0.682536 -0.100917 0.723851
			0.253407 0.304646 0.918137
			0.061092 0.263255 0.962790
			0.655927 0.430471 0.620044
			0.422265 0.336315 0.841775
			-0.274815 -0.822573 -0.497846
			-0.446349 -0.856023 -0.260762
			0.785693 0.372618 0.493804
			0.858275 0.450817 0.245210
			0.401018 0.897291 0.184534
			-0.029074 0.611841 0.790446
			-0.286741 0.957535 -0.030094
			-0.256986 0.958667 -0.122133
			-0.250723 0.961261 0.114523
			-0.311692 0.906543 -0.284655
			-0.309261 0.950530 0.029168
			0.163569 0.955054 -0.247220
			-0.288289 0.946336 0.146072
			-0.529976 0.845297 0.067808
			-0.482341 0.875756 0.019973
			-0.412848 -0.897654 0.154188
			-0.552375 -0.809374 0.199490
			-0.222865 -0.945288 0.238247
			-0.992976 -0.102841 0.058499
			-0.644247 -0.667141 0.373990
			-0.924757 -0.047988 0.377519
			-0.892438 0.058008 0.447425
			-0.844859 0.076497 0.529491
			-0.818074 0.143063 0.557034
			-0.966253 0.108151 0.233791
			-0.919469 0.393157 -0.001990
			-0.911156 0.102815 0.399029
			-0.940249 0.326459 0.096731
			-0.897884 0.168372 0.406763
			-0.305486 0.473863 -0.825913
			-0.846184 0.482779 -0.225604
			0.512463 0.249391 -0.821697
			0.548274 0.277449 -0.788934
			0.562896 0.300590 -0.769931
			0.384116 0.160796 -0.909175
			0.751821 0.078994 -0.654618
			0.743678 0.237924 -0.624768
			0.011144 -0.931200 0.364337
			0.803023 -0.503972 -0.318067
			0.802685 -0.546299 -0.239279
			0.680984 -0.723253 -0.114744
			0.878804 -0.073947 -0.471419
			0.862515 -0.291909 -0.413347
			0.823004 -0.466087 -0.324695
			0.610290 -0.765975 0.202062
			0.611484 -0.789970 0.045106
			0.177757 -0.898472 0.401436
			0.171515 -0.320855 0.931469
			-0.879649 0.007945 -0.475556
			-0.857345 0.067872 -0.510248
			-0.451111 -0.401767 -0.796921
			-0.302806 -0.725331 -0.618226
			0.200328 -0.331740 -0.921855
			-0.128049 -0.827607 -0.546508
			-0.202769 -0.786267 -0.583668
			-0.109359 -0.681356 -0.723736
			-0.107119 -0.826681 -0.552381
			-0.066737 -0.909946 -0.409322
			-0.620593 -0.045901 -0.782788
			-0.592316 -0.138810 -0.793658
			-0.624080 -0.121388 -0.771874
			-0.830890 0.091147 -0.548920
			-0.927758 0.307974 -0.210755
			-0.923437 0.355954 -0.143391
			-0.921284 0.119954 -0.369929
			-0.918720 0.382372 -0.098718
			-0.802560 -0.143242 -0.579119
			-0.181530 0.329437 0.926563
			0.353870 0.175543 0.918673
			0.429266 0.334636 0.838897
			0.477023 0.305121 0.824227
			0.428020 0.292324 0.855188
			0.531975 0.199808 0.822848
			0.681708 -0.129641 0.720047
			0.794468 0.074212 0.602755
			0.793532 0.396811 0.461354
			0.885166 0.312578 0.344640
			0.963637 0.216049 0.157246
			-0.044966 -0.942299 -0.331739
			0.817908 0.575260 -0.010069
			0.402454 0.915405 0.008032
			-0.202128 0.345807 0.916276
			-0.411914 0.910306 -0.040866
			-0.420682 0.887096 -0.189967
			-0.470615 0.877267 0.094469
			-0.497268 0.827223 -0.261586
			0.775156 0.184618 -0.604193
			0.751306 -0.140450 -0.644836
			0.615719 0.209212 -0.759684
			-0.335646 0.934772 -0.116378
			-0.613671 0.750156 -0.246322
			-0.627625 0.771862 0.101568
			0.528440 0.832103 0.168393
			-0.510441 0.833575 -0.211195
			0.118882 -0.983244 -0.138193
			-0.198135 -0.963520 0.179924
			0.123554 -0.986981 0.102974
			-0.726473 -0.440576 0.527380
			-0.680326 -0.327681 0.655577
			-0.782154 0.149490 0.604887
			-0.718122 0.087981 0.690333
			-0.779236 0.051464 0.624614
			-0.770892 0.099247 0.629187
			-0.729662 0.146604 0.667908
			-0.899354 0.436328 -0.027920
			-0.923064 0.379504 0.062684
			-0.870173 0.256614 0.420652
			-0.734699 0.077895 0.673906
			-0.825256 0.517463 -0.226238
			-0.208810 0.670444 -0.711971
			0.233332 0.319807 -0.918303
			0.614757 0.235053 -0.752877
			0.637022 0.274064 -0.720480
			0.668280 0.272210 -0.692318
			0.752760 0.179950 -0.633222
			0.861475 -0.153415 -0.484071
			0.136521 -0.764449 0.630064
			0.790796 -0.592925 -0.151925
			0.867905 -0.411671 -0.277970
			0.592687 -0.802643 0.066985
			0.718408 -0.695435 0.016142
			0.514835 -0.790393 0.331999
			0.259169 -0.961966 0.086334
			0.113601 -0.520860 0.846050
			0.187866 -0.791721 0.581279
			0.426808 -0.901940 0.065870
			0.486915 -0.864778 0.122771
			0.456210 -0.842561 0.286293
			-0.850687 0.112135 -0.513574
			-0.029019 -0.633261 -0.773394
			-0.455760 -0.417558 -0.786084
			-0.796827 0.121439 -0.591878
			-0.808793 0.138016 -0.571669
			0.618222 -0.484183 -0.619167
			0.562856 -0.295700 -0.771851
			0.651222 -0.040979 -0.757780
			0.520442 -0.314614 -0.793825
			0.496568 -0.111011 -0.860870
			0.158228 -0.765045 -0.624236
			-0.092407 -0.860918 -0.500281
			-0.044104 -0.852025 -0.521640
			0.048546 -0.964468 -0.259701
			0.145713 -0.954675 -0.259544
			-0.724827 -0.009281 -0.688868
			-0.688772 -0.037054 -0.724030
			-0.846948 -0.218313 -0.484787
			-0.833760 -0.100452 -0.542912
			-0.926449 0.294141 -0.234888
			-0.908040 0.352172 -0.226800
			-0.919390 0.359255 -0.160180
			-0.920810 0.378098 -0.095661
			-0.911762 0.023710 -0.410034
			-0.889941 -0.095104 -0.446049
			-0.915293 0.398227 -0.060448
			-0.890750 -0.066784 -0.449560
			0.694385 -0.213129 0.687318
			-0.192490 0.410262 0.891422
			0.333813 0.340604 0.878953
			0.550605 -0.107329 0.827837
			0.314443 0.149578 0.937418
			0.107149 0.110760 0.988054
			0.255342 0.005688 0.966834
			0.891719 0.258293 0.371648
			0.998844 -0.012648 0.046385
			0.859107 -0.212888 0.465418
			0.970832 0.026547 -0.238285
			0.809168 0.304184 -0.502712
			0.639167 0.684490 -0.350627
			0.706617 0.525127 -0.474272
			0.179256 -0.515762 0.837769
			-0.152472 -0.062681 0.986318
			-0.594531 0.695751 0.403069
			-0.479619 0.828847 -0.288059
			-0.631935 0.772986 0.056123
			-0.548610 0.794201 -0.261290
			0.629566 -0.377370 -0.679146
			0.647230 -0.553169 -0.524497
			0.662312 -0.599157 -0.449838
			0.743862 -0.524328 -0.414425
			0.474712 0.503255 -0.722068
			0.782656 -0.573659 -0.241589
			0.813126 -0.452295 -0.366407
			-0.235642 0.930998 -0.278776
			-0.694695 0.663103 0.278737
			-0.641521 0.758366 0.115465
			0.740203 -0.646419 0.185047
			0.909868 -0.348269 0.225499
			0.541522 -0.834749 -0.099737
			0.792925 -0.609316 -0.001942
			-0.917280 -0.397893 -0.016717
			-0.697214 0.716457 0.024122
			-0.586230 0.744644 -0.319124
			-0.653639 0.727251 -0.209433
			0.230606 -0.962165 -0.145120
			0.331620 -0.941513 -0.059845
			-0.156281 -0.432136 0.888164
			-0.694134 0.155001 0.702960
			-0.433825 -0.188390 0.881082
			-0.714637 0.074661 0.695500
			-0.644239 0.074129 0.761224
			-0.866733 0.497176 -0.039863
			-0.891668 0.451822 0.028037
			-0.818570 0.380576 0.430239
			-0.733291 0.150615 0.663023
			-0.705277 0.093626 0.702722
			-0.376270 0.891862 -0.251004
			0.477817 0.545468 -0.688590
			0.640990 0.276000 -0.716210
			0.653265 0.263997 -0.709612
			0.713635 0.195147 -0.672787
			0.682032 0.224701 -0.695947
			0.790957 0.016467 -0.611650
			0.827952 -0.518744 -0.213074
			0.811468 -0.154469 -0.563612
			0.791990 -0.508936 -0.337247
			0.574643 -0.793468 0.200485
			0.646891 -0.724487 0.238013
			0.715478 -0.696240 -0.057798
			0.388314 -0.763758 0.515642
			0.461684 -0.755051 0.465561
			0.404262 -0.914619 -0.006713
			0.542428 -0.838906 0.044805
			0.677557 -0.721151 0.144426
			-0.350875 -0.162603 -0.922197
			0.633537 -0.613720 -0.471146
			0.076110 -0.331568 -0.940356
			-0.897874 -0.180191 -0.401689
			-0.857440 0.023567 -0.514045
			-0.691938 -0.495416 -0.525151
			0.818943 -0.519254 -0.244352
			0.844383 -0.218106 -0.489334
			0.815550 -0.008263 -0.578628
			0.326251 -0.813838 -0.480862
			0.017045 -0.925769 -0.377705
			0.033658 -0.977547 -0.208011
			0.136989 -0.971887 -0.191492
			-0.892465 -0.175169 -0.415719
			-0.862449 0.129153 -0.489389
			-0.758801 0.289079 -0.583657
			-0.803240 0.441882 -0.399432
			-0.883035 0.432353 -0.182536
			-0.891213 0.439348 -0.112756
			-0.894118 0.444649 -0.053299
			-0.772244 -0.053477 -0.633072
			-0.636776 0.501332 0.585818
			-0.774436 -0.010382 -0.632567
			-0.727210 -0.039266 -0.685291
			0.234635 0.006680 0.972061
			0.505163 -0.131370 0.852967
			0.601323 0.128117 0.788668
			0.157178 0.454745 0.876642
			0.083392 -0.016849 0.996374
			0.400067 -0.639607 0.656391
			0.190618 -0.434108 0.880463
			-0.040905 0.123300 0.991526
			0.115672 0.091324 0.989080
			0.771043 -0.602493 0.206142
			0.552179 -0.743250 0.377727
			0.340158 -0.618874 0.708017
			-0.479988 0.397674 0.781963
			0.485131 -0.493019 0.722205
			-0.563992 0.800748 0.201781
			-0.665423 0.737963 -0.112346
			0.522432 -0.817812 -0.241349
			0.609314 -0.755378 -0.241122
			0.755104 0.040288 -0.654366
			0.722790 -0.685505 -0.087507
			0.809148 -0.409173 -0.421730
			0.558508 -0.824165 -0.093921
			0.581097 0.229778 -0.780723
			-0.528244 0.840840 -0.118094
			0.682678 -0.728459 0.057438
			0.660794 -0.741341 0.117325
			0.204835 -0.978053 -0.038148
			0.597494 -0.794990 0.104841
			0.603639 -0.786723 0.129178
			0.749170 -0.649319 0.130878
			0.772360 -0.610485 0.175408
			-0.752813 0.606097 -0.256747
			-0.781080 0.622357 -0.050850
			-0.680551 0.672777 -0.290208
			0.281767 -0.953029 -0.111097
			-0.585101 0.059294 0.808790
			0.119592 -0.650122 0.750359
			-0.522585 -0.113088 0.845054
			-0.574816 0.031924 0.817660
			-0.669136 0.078709 0.738960
			-0.670722 0.063211 0.739010
			-0.606807 0.045658 0.793536
			-0.607802 0.031623 0.793459
			-0.700968 0.710054 0.066844
			-0.802249 0.557853 0.212596
			-0.738750 0.216318 0.638322
			-0.620924 0.401966 0.672961
			-0.575236 0.748628 0.329636
			-0.608363 0.108338 0.786230
			-0.660899 0.088426 0.745247
			0.139409 0.928131 -0.345165
			-0.228050 0.973644 0.003187
			0.250996 0.817743 -0.517974
			0.648392 0.333015 -0.684608
			0.649843 0.269252 -0.710780
			0.647612 0.275973 -0.710238
			0.754527 0.079991 -0.651376
			0.661009 0.250985 -0.707159
			0.680202 0.190889 -0.707734
			0.758693 0.066817 -0.648012
			0.815177 -0.395475 -0.423187
			0.738201 -0.021350 -0.674243
			0.805077 -0.192951 -0.560910
			0.727298 -0.657603 -0.196458
			0.721509 -0.646386 -0.248214
			0.537119 -0.814404 0.219657
			0.350088 -0.835726 0.423084
			0.694144 -0.704478 -0.147900
			0.543887 -0.839000 0.016314
			0.358941 -0.930552 -0.072346
			0.501806 -0.864240 0.035787
			0.560317 -0.711731 -0.423656
			-0.786733 -0.104411 -0.608399
			-0.723127 -0.235674 -0.649265
			-0.714282 -0.434541 -0.548612
			-0.755660 -0.637235 -0.151359
			-0.386669 -0.905198 0.176360
			0.163214 -0.985004 0.055934
			0.297122 -0.921905 -0.248614
			0.247945 -0.960630 -0.125354
			-0.668796 0.077413 -0.739405
			-0.545161 0.080562 -0.834452
			-0.606031 0.186529 -0.773262
			-0.605660 0.355930 -0.711681
			-0.627783 0.776016 0.060730
			-0.694741 0.700055 -0.165098
			-0.716492 0.553522 -0.424562
			-0.597133 0.537630 -0.595303
			-0.098955 0.730999 0.675165
			-0.200130 0.788772 0.581194
			-0.570764 -0.011573 -0.821033
			-0.639922 0.009018 -0.768387
			0.324719 -0.060367 0.943882
			0.240488 0.217826 0.945895
			0.165670 0.381004 0.909610
			0.385181 0.226759 0.894548
			0.580367 -0.359686 0.730617
			0.350210 -0.822550 0.448068
			0.217141 -0.782357 0.583753
			0.190931 -0.637485 0.746430
			0.319449 0.408758 0.854909
			0.577692 -0.064362 0.813713
			0.454857 0.269059 0.848948
			0.607265 -0.710871 0.354813
			0.626373 -0.610941 0.484158
			0.078947 -0.175215 0.981360
			-0.697479 0.540478 0.470539
			0.653542 -0.494051 0.573408
			0.798393 -0.549595 0.245996
			0.871387 -0.433814 0.229106
			-0.797773 0.587477 -0.135751
			0.436100 -0.888901 -0.140257
			0.529375 -0.840460 -0.115714
			0.847399 -0.514334 -0.131817
			0.788644 -0.610985 0.068838
			0.193560 0.419660 -0.886803
			0.901417 -0.404370 -0.154700
			0.871916 -0.473585 0.124413
			0.843758 -0.525091 0.111143
			-0.593289 0.804965 -0.006314
			-0.178017 0.949919 0.256834
			0.680440 0.658915 -0.320675
			-0.109746 0.805603 -0.582203
			-0.219243 -0.477667 0.850745
			-0.604216 -0.008285 0.796777
			-0.502165 -0.165414 0.848804
			-0.652179 0.065715 0.755211
			-0.627674 0.044412 0.777209
			-0.358702 0.074994 0.930435
			-0.492782 0.825889 0.273994
			-0.510619 0.750967 0.418709
			-0.656244 0.165420 0.736193
			-0.625876 0.411391 0.662598
			-0.217219 0.973994 -0.064430
			-0.654235 0.077111 0.752350
			0.535392 0.499703 -0.680921
			0.101917 0.953277 -0.284386
			0.641955 0.345280 -0.684599
			0.657501 0.255788 -0.708706
			0.671916 0.226097 -0.705272
			0.708908 0.152793 -0.688552
			0.726361 -0.596980 -0.340608
			0.686959 0.103377 -0.719305
			0.744180 -0.044883 -0.666469
			0.758475 -0.319561 -0.567975
			0.345849 -0.912423 0.218799
			0.107517 -0.740798 0.663068
			0.626303 -0.772110 -0.107658
			0.533784 -0.827842 0.172489
			-0.538648 -0.038226 -0.841663
			-0.333805 -0.423435 -0.842186
			-0.274654 -0.861524 -0.427014
			-0.502850 -0.855862 -0.121002
			0.068203 -0.996131 0.055414
			0.384441 -0.827826 0.408545
			-0.428812 0.004951 -0.903380
			-0.525645 0.066414 -0.848108
			-0.502843 0.119374 -0.856095
			-0.542996 0.336726 -0.769266
			-0.209122 0.955669 0.207279
			0.020468 0.877436 0.479256
			0.197936 0.628649 0.752078
			-0.571641 0.769113 -0.285816
			-0.526110 0.530945 -0.664308
			-0.439741 0.860947 -0.255729
			0.366227 0.338961 0.866593
			0.396960 0.347341 0.849575
			-0.435090 0.032619 -0.899796
			-0.478638 0.037782 -0.877199
			0.385765 0.273182 0.881225
			0.383261 0.371501 0.845635
			0.421212 0.281997 0.862008
			0.546058 -0.540455 0.640101
			0.791780 0.007964 0.610754
			0.800387 -0.484888 0.352512
			0.826896 -0.379418 0.415073
			0.839365 -0.189825 0.509346
			0.514944 -0.649219 0.559774
			0.462749 0.318135 0.827438
			-0.436785 0.027523 0.899145
			0.402090 -0.529503 0.746961
			-0.894527 0.410787 0.176283
			0.908641 -0.349639 -0.228306
			0.983877 -0.059956 0.168497
			-0.762120 0.460541 -0.455055
			0.496393 0.669261 -0.552886
			0.976598 -0.213643 -0.024766
			0.954573 -0.066499 0.290461
			0.450886 0.476843 0.754535
			0.672497 0.688117 0.272475
			-0.617016 0.021686 0.786652
			-0.597553 -0.022430 0.801516
			-0.336032 -0.444364 0.830435
			-0.637008 0.052330 0.769079
			-0.213507 0.969538 0.120040
			-0.484364 0.780703 0.394835
			-0.258974 0.962790 0.077258
			-0.665639 0.158305 0.729290
			-0.653241 0.319469 0.686451
			-0.545542 0.646757 0.533000
			-0.648624 0.065032 0.758326
			0.203144 0.891180 -0.405625
			0.656804 0.294855 -0.694024
			0.517757 0.585253 -0.624024
			0.657923 0.241816 -0.713206
			0.603441 -0.794119 -0.072347
			0.744529 -0.514227 -0.425731
			0.565751 -0.797983 -0.207723
			0.663854 0.187940 -0.723863
			0.703718 0.096239 -0.703931
			0.735473 -0.265338 -0.623439
			0.390241 -0.882854 0.261307
			-0.466180 0.018124 -0.884504
			-0.409649 0.043637 -0.911199
			-0.265568 -0.209656 -0.941020
			0.143600 -0.908471 -0.392504
			0.392495 -0.752325 -0.529108
			0.499247 -0.859133 -0.112444
			0.436117 -0.884374 0.166387
			0.744074 -0.640099 0.191383
			0.757889 -0.549243 0.352047
			-0.410967 0.027945 -0.911222
			-0.417583 0.006036 -0.908619
			-0.428639 0.040213 -0.902581
			-0.434749 0.184144 -0.881524
			-0.438984 0.390061 -0.809411
			0.345084 0.456500 0.820076
			0.078887 0.877926 0.472253
			0.392640 0.298638 0.869856
			-0.436483 0.642900 -0.629414
			-0.209188 0.960237 -0.184895
			-0.412701 0.046332 -0.909688
			0.409851 0.300661 0.861177
			0.410624 0.304326 0.859519
			0.408303 0.325353 0.852897
			0.720340 0.082572 0.688688
			0.752028 -0.472152 0.459920
			0.766074 -0.302461 0.567140
			0.693662 -0.095717 0.713912
			0.649665 0.121661 0.750423
			0.458157 0.285190 0.841878
			-0.555372 0.320841 0.767218
			0.300916 -0.470444 0.829538
			0.389824 -0.890243 0.235594
			-0.671174 0.588217 0.451138
			-0.632790 0.761633 -0.139613
			-0.537245 -0.797830 0.273562
			-0.865740 0.449337 -0.220434
			-0.637841 0.722499 -0.266747
			-0.640012 0.030716 0.767750
			-0.628787 0.006219 0.777553
			-0.568835 -0.085679 0.817976
			-0.063507 -0.830519 0.553358
			-0.553117 -0.261420 0.791026
			-0.301293 0.929722 0.211755
			0.000333 0.988343 -0.152246
			-0.631726 0.182859 0.753316
			-0.588783 0.446930 0.673489
			-0.531636 0.694114 0.485354
			-0.372576 0.907878 0.192208
			-0.644638 0.054485 0.762544
			0.106432 0.944808 -0.309855
			0.589059 0.410712 -0.695935
			0.626138 0.257562 -0.735944
			0.643639 -0.672193 -0.365903
			0.354711 -0.929154 0.104174
			0.464619 -0.885506 0.002929
			0.661573 0.189167 -0.725629
			0.679398 0.018983 -0.733525
			0.691781 -0.517801 -0.503311
			0.718914 -0.210623 -0.662421
			0.698782 -0.436087 -0.567038
			-0.304133 -0.044111 -0.951608
			-0.358474 0.025768 -0.933184
			0.312014 -0.542926 -0.779666
			0.716324 -0.661754 -0.221272
			0.724578 -0.689192 -0.000896
			0.705411 -0.682840 0.190065
			0.705906 -0.570626 0.419622
			-0.372272 0.016418 -0.927979
			-0.411667 -0.000067 -0.911334
			-0.385558 0.003153 -0.922678
			-0.426397 -0.005589 -0.904519
			-0.427787 0.023297 -0.903579
			-0.443065 0.195946 -0.874814
			-0.461357 0.385778 -0.798953
			0.367263 0.268568 0.890500
			0.409471 0.275953 0.869588
			0.406853 0.250561 0.878459
			0.399273 0.251375 0.881698
			0.395342 0.395823 0.828873
			0.274358 0.672075 0.687781
			-0.014336 0.972115 0.234066
			0.384449 0.315876 0.867422
			-0.391056 0.656717 -0.644825
			-0.268113 0.876953 -0.398834
			0.426636 0.310751 0.849362
			0.718774 -0.466037 0.515920
			0.623831 0.172955 0.762182
			0.661647 -0.369538 0.652430
			0.576361 -0.164305 0.800507
			0.542456 0.078201 0.836436
			0.533539 0.192662 0.823539
			0.413559 0.255011 0.874036
			0.084113 0.073555 0.993738
			0.706151 -0.648167 0.285009
			0.869483 -0.252348 0.424640
			0.744930 -0.644664 0.171720
			-0.635733 0.763432 0.114085
			-0.330030 -0.943942 0.007265
			-0.999424 0.021376 0.026343
			-0.730276 0.546869 -0.409428
			-0.720511 0.628508 -0.292986
			0.472973 0.880959 0.014403
			0.192974 0.974383 -0.115494
			-0.278676 0.957625 -0.072758
			-0.642896 0.031809 0.765293
			-0.608161 -0.051678 0.792130
			-0.310363 -0.605145 0.733126
			0.194232 -0.922837 0.332634
			-0.630171 -0.082817 0.772027
			-0.544706 -0.249984 0.800502
			-0.642547 0.158206 0.749736
			-0.696910 0.343050 0.629787
			-0.580748 0.595777 0.554780
			-0.421926 0.828278 0.368691
			-0.133084 0.989194 -0.061512
			-0.649736 0.080048 0.755934
			0.410003 0.690593 -0.595801
			0.607424 0.332504 -0.721441
			0.627456 -0.669269 -0.397968
			0.440832 -0.888359 -0.128393
			0.617400 0.308203 -0.723760
			0.637816 0.162306 -0.752893
			0.657986 0.100915 -0.746237
			0.703054 -0.050101 -0.709369
			0.696788 -0.273063 -0.663267
			0.568711 -0.687860 -0.451018
			-0.308578 -0.038167 -0.950433
			0.053838 -0.329917 -0.942474
			-0.337622 -0.011774 -0.941208
			0.544490 -0.640813 -0.541192
			0.613264 -0.778195 -0.135354
			0.622652 -0.774632 0.110677
			0.688302 -0.640545 0.340503
			-0.388827 -0.019503 -0.921104
			-0.396414 -0.015270 -0.917945
			-0.407323 0.097199 -0.908097
			-0.396859 0.006706 -0.917855
			-0.421611 0.260894 -0.868434
			-0.388784 0.511198 -0.766501
			0.387337 0.256584 0.885514
			0.398528 0.299670 0.866818
			0.101048 0.866374 0.489065
			0.272142 0.504928 0.819137
			-0.163836 0.983138 -0.081223
			-0.414905 0.548758 -0.725754
			-0.353033 0.809693 -0.468791
			0.652336 -0.720592 0.234957
			0.673945 -0.224712 0.703778