<?xml version="1.0"?>
<VTKFile type="PolyData" version="0.1" byte_order="LittleEndian" compressor="vtkZLibDataCompressor">
	<PolyData>
		<Piece NumberOfPoints="825" NumberOfVerts="0" NumberOfLines="0" NumberOfStrips="0" NumberOfPolys="1642">
		<PointData Normals="Normals">
		<DataArray type="Float32" Name="Normals" NumberOfComponents="3" format="ascii">
			 0.846288 -0.065340  0.528703
			 0.202423  0.720182  0.663599
			 0.333047  0.864560  0.376319
			 0.974553  0.219587  0.045034
			-0.095733  0.818563  0.566384
			 0.338518  0.852504  0.398300
			 0.940887 -0.287990 -0.178305
			 0.563483 -0.416874 -0.713234
			 0.876832 -0.349271 -0.330418
			 0.682032  0.567428 -0.461364
			 0.369931  0.917662  0.145079
			 0.604471  0.795983  0.032035
			 0.934110  0.335466  0.122072
			 0.998638  0.027939 -0.044055
			 0.942025  0.075658 -0.326903
			 0.062905  0.936420 -0.345196
			-0.216212  0.966849 -0.135851
			-0.466330  0.879961 -0.090587
			-0.510028  0.814901 -0.275333
			 0.472942 -0.025621 -0.880721
			 0.526479  0.000692 -0.850188
			 0.144891  0.052765 -0.988040
			-0.010509 -0.403369 -0.914977
			-0.238049 -0.223935 -0.945085
			-0.223101  0.190762 -0.955947
			-0.037918  0.625637 -0.779192
			 0.590115  0.807094  0.019059
			 0.635255  0.705954 -0.313179
			 0.647387  0.733781  0.206047
			 0.944279  0.275705  0.179787
			 0.992308  0.025108  0.121220
			 0.990815 -0.135140  0.004796
			 0.953999 -0.020820 -0.299085
			 0.301331  0.714645 -0.631254
			-0.102926  0.651536 -0.751603
			-0.264518  0.726301 -0.634442
			-0.645616  0.711427 -0.277583
			-0.703180  0.362076 -0.611915
			 0.716182 -0.034275 -0.697071
			 0.394203  0.184756 -0.900261
			 0.078948  0.611989 -0.786916
			 0.031047  0.105729 -0.993910
			-0.102094  0.320683 -0.941668
			-0.420138 -0.081665 -0.903778
			 0.681976  0.653676  0.328050
			 0.833580  0.549193  0.059431
			 0.222552  0.871144 -0.437698
			 0.442441  0.867097 -0.228888
			 0.744344  0.458519  0.485503
			 0.969904 -0.005042  0.243434
			 0.976748 -0.166638  0.134890
			 0.894485 -0.438595  0.086784
			 0.865686 -0.407553 -0.290670
			-0.020621  0.763368 -0.645634
			 0.031252  0.577385 -0.815874
			-0.165491  0.678095 -0.716101
			-0.486998  0.704726 -0.515940
			 0.009711  0.749720 -0.661684
			-0.366620  0.451331 -0.813566
			 0.580550 -0.130984 -0.803620
			 0.368526  0.250830 -0.895139
			 0.011845  0.760719 -0.648973
			 0.156319  0.635007 -0.756526
			 0.113164  0.703065 -0.702064
			 0.866065  0.458762  0.198670
			 0.961048  0.252671  0.112001
			 0.768829  0.597612 -0.227514
			 0.118575  0.938381 -0.324624
			 0.121165  0.942854 -0.310396
			 0.183508  0.914292 -0.361102
			 0.947495  0.234300  0.217618
			 0.788647 -0.042642  0.613366
			 0.881299  0.088119  0.464270
			 0.882824  0.205564  0.422333
			 0.965353 -0.169020  0.198810
			 0.800748 -0.271034  0.534176
			 0.719819 -0.168910  0.673298
			 0.868387 -0.429674  0.247557
			 0.781810 -0.589668  0.202643
			 0.711630 -0.656132  0.251146
			 0.693693 -0.717877  0.058672
			 0.571411 -0.490946 -0.657619
			 0.692598 -0.708368 -0.136096
			 0.059418  0.793994 -0.605015
			 0.077747  0.593986 -0.800710
			 0.112901  0.912567 -0.393032
			 0.028683  0.690717 -0.722556
			 0.220409  0.670920 -0.708016
			 0.264137  0.604269 -0.751725
			 0.275153  0.608332 -0.744461
			 0.246660  0.676934 -0.693483
			 0.203358  0.733299 -0.648782
			 0.219806  0.705239 -0.674035
			 0.490662 -0.100433 -0.865542
			 0.250791 -0.017906 -0.967876
			 0.218278  0.215251 -0.951852
			 0.141608  0.496709 -0.856287
			 0.021775  0.700209 -0.713606
			 0.127844  0.608279 -0.783359
			 0.210975  0.642863 -0.736354
			 0.991248  0.129913  0.023440
			 0.715629  0.688006 -0.120511
			 0.398363  0.872617 -0.282571
			 0.131211  0.955380 -0.264637
			 0.134744  0.894006 -0.427315
			 0.996887  0.061624  0.049176
			 0.996434  0.079486  0.028298
			 0.597858 -0.254700  0.760062
			 0.978608  0.177361  0.104257
			 0.953728 -0.156338  0.256830
			 0.802096 -0.206939  0.560195
			 0.966862  0.252351  0.038686
			 0.824350 -0.479765  0.300453
			 0.777558 -0.518466  0.355803
			 0.689205 -0.643004  0.333980
			 0.677490 -0.642968  0.357211
			 0.630074 -0.688679  0.358787
			 0.440497 -0.836097  0.326962
			 0.400893 -0.869840  0.287512
			 0.520724 -0.850175  0.077769
			 0.529358 -0.840636 -0.114501
			 0.294595 -0.156873 -0.942658
			 0.194954 -0.895212 -0.400736
			 0.344490 -0.509381 -0.788579
			 0.219583  0.742463 -0.632877
			 0.293851  0.596747 -0.746689
			 0.321443  0.635795 -0.701739
			 0.315943  0.701500 -0.638810
			 0.271325  0.689598 -0.671444
			 0.282616  0.595348 -0.752123
			 0.254723  0.668416 -0.698811
			 0.243591  0.689412 -0.682184
			 0.074740  0.367398 -0.927056
			 0.029895 -0.544041 -0.838526
			 0.063097 -0.010103 -0.997956
			-0.049372  0.378069 -0.924460
			-0.033254  0.571130 -0.820186
			 0.143993  0.432023 -0.890293
			 0.261559  0.494342 -0.828983
			 0.956168  0.292742 -0.006657
			 0.537212  0.843236 -0.018875
			 0.160231  0.968162 -0.192322
			 0.165645  0.978047 -0.126436
			 0.147288  0.970159 -0.192606
			 0.175930  0.934439 -0.309634
			 0.221657  0.935035 -0.276727
			 0.216344  0.840682 -0.496436
			 0.113188  0.961782 -0.249328
			 0.995559  0.093690 -0.009208
			 0.996777  0.073867  0.031285
			 0.785559  0.613137  0.083427
			 0.988609  0.117313  0.094282
			 0.976676 -0.169385  0.131956
			 0.980759  0.194078  0.021122
			 0.588701 -0.752628  0.294929
			 0.399923 -0.838123  0.370961
			 0.210191 -0.918027  0.336224
			 0.065990 -0.945970  0.317467
			-0.042305 -0.938423  0.342889
			 0.035585 -0.984381  0.172418
			 0.093674 -0.994720 -0.041931
			 0.194780 -0.517098 -0.833469
			-0.147832 -0.976872 -0.154492
			 0.352612  0.778485 -0.519255
			 0.292787  0.827496 -0.479089
			 0.296762  0.583912 -0.755631
			 0.349150  0.728274 -0.589670
			 0.311242  0.579161 -0.753459
			 0.380662  0.623488 -0.682905
			 0.383615  0.723937 -0.573371
			 0.261974  0.657332 -0.706600
			 0.266716  0.607424 -0.748264
			 0.372998  0.524886 -0.765093
			 0.220072  0.710633 -0.668259
			 0.281058  0.665055 -0.691887
			 0.345578  0.571940 -0.743950
			-0.113986 -0.282627 -0.952433
			-0.232353 -0.848453 -0.475542
			 0.197137  0.333846 -0.921783
			 0.129589  0.468682 -0.873810
			 0.409768  0.450598 -0.793128
			 0.277622  0.580797 -0.765245
			 0.126265  0.986349  0.105705
			 0.106455  0.990149 -0.090955
			 0.068888  0.996685 -0.043280
			 0.100304  0.987409 -0.122326
			 0.337500  0.857690 -0.387895
			 0.112932  0.992021 -0.056037
			 0.315742  0.948834 -0.004594
			 0.360548  0.916771 -0.171862
			 0.996046  0.088769  0.003656
			 0.994665  0.102837  0.008099
			 0.786515  0.609977  0.096548
			 0.139446  0.960393  0.241245
			 0.993278  0.089046  0.073956
			 0.984746 -0.147474  0.092345
			 0.989591  0.139468  0.035471
			 0.642959 -0.730851  0.229042
			 0.082600 -0.912741  0.400101
			 0.122107 -0.937157  0.326842
			 0.067731 -0.961980  0.264587
			-0.073491 -0.954514  0.288968
			-0.097460 -0.963307  0.250083
			-0.183388 -0.950697  0.250090
			-0.240577 -0.946855  0.213514
			-0.217561 -0.975071  0.043636
			-0.295892 -0.952177 -0.076203
			 0.440256  0.764877 -0.470253
			 0.400498  0.857078 -0.324067
			 0.377017  0.565512 -0.733522
			 0.417673  0.715653 -0.559813
			 0.448343  0.581182 -0.679129
			 0.388309  0.618664 -0.682986
			 0.425960  0.450135 -0.784816
			 0.105206  0.230035 -0.967479
			-0.336065  0.466450 -0.818221
			-0.410646  0.597252 -0.688956
			 0.058563  0.480472 -0.875053
			-0.186434 -0.781714 -0.595118
			 0.102037 -0.672848 -0.732711
			-0.212855 -0.956946 -0.197352
			 0.377319 -0.065807 -0.923742
			 0.341095  0.485169 -0.805149
			-0.407270  0.424724 -0.808542
			-0.315895  0.357249 -0.878967
			-0.166596  0.841703  0.513597
			-0.075960  0.954596  0.288056
			-0.011780  0.997192  0.073956
			 0.081869  0.987928  0.131516
			 0.282949  0.948070  0.145270
			 0.358395  0.931848  0.056667
			 0.377159  0.923123 -0.074802
			 0.996572  0.080085  0.020741
			 0.989293  0.142810  0.030096
			 0.637339  0.745284  0.195834
			-0.229931  0.632672  0.739498
			 0.996257  0.075618  0.041889
			 0.992715 -0.102993  0.062521
			 0.993767  0.110074  0.017606
			 0.621369 -0.783518 -0.000938
			 0.144041 -0.966729  0.211392
			 0.048853 -0.976970  0.207708
			 0.020165 -0.984199  0.175915
			-0.189194 -0.945260  0.265874
			 0.072103 -0.988711  0.131344
			 0.013978 -0.991351  0.130491
			-0.274979 -0.934611  0.225586
			-0.108071 -0.972523  0.206201
			-0.300957 -0.947608  0.107072
			-0.229678 -0.971172  0.063822
			 0.463869  0.833313 -0.300692
			 0.465945  0.691685 -0.551785
			 0.462372  0.749049 -0.474486
			 0.444337  0.888658 -0.113364
			-0.125820  0.466145 -0.875716
			-0.356915  0.271374 -0.893850
			 0.161747  0.643488 -0.748172
			 0.365262  0.674239 -0.641861
			-0.767330  0.154578 -0.622343
			-0.843665 -0.488984 -0.221638
			-0.655675 -0.712578 -0.249647
			-0.301829 -0.782422 -0.544715
			-0.761728 -0.267612 -0.590046
			-0.911235  0.219849 -0.348306
			-0.929801 -0.108082 -0.351835
			-0.854222  0.202695 -0.478769
			 0.072724 -0.983227 -0.167258
			 0.251797 -0.868258 -0.427465
			 0.215310 -0.571208 -0.792063
			 0.112775  0.250553 -0.961512
			-0.427532 -0.033378 -0.903384
			-0.580798  0.246948 -0.775687
			-0.304886  0.335600  0.891301
			-0.088331  0.727596  0.680295
			 0.017600  0.926121  0.376815
			 0.211891  0.875781  0.433717
			 0.342176  0.912686  0.223427
			 0.435488  0.899393  0.037987
			 0.412089  0.893699  0.177441
			 0.993387  0.109327  0.035059
			 0.981697  0.158535  0.105532
			 0.506181  0.621934  0.597478
			-0.265417  0.228509  0.936663
			-0.507779  0.433766  0.744316
			-0.488710  0.419791  0.764813
			-0.380883  0.233687  0.894605
			 0.996665  0.081290  0.007156
			 0.999265 -0.029507  0.024465
			 0.995402  0.094974  0.012457
			 0.838129 -0.545044 -0.021630
			 0.285043 -0.942504 -0.174460
			 0.166514 -0.968114 -0.187158
			 0.174407 -0.979090 -0.104712
			 0.091963 -0.991082  0.096435
			 0.061669 -0.944312  0.323221
			 0.068526 -0.989015  0.130972
			 0.126272 -0.948209  0.291469
			 0.183823 -0.972031  0.146165
			 0.196319 -0.976303  0.091053
			 0.187454 -0.978120  0.090230
			-0.174206 -0.968957  0.175427
			 0.150378 -0.983453  0.101024
			 0.106993 -0.993734  0.032328
			 0.493868  0.845914 -0.201305
			 0.459579  0.852728 -0.248278
			-0.038839  0.861637 -0.506037
			 0.489866  0.870744 -0.042852
			-0.781041 -0.440285 -0.442859
			-0.831883  0.198798 -0.518122
			-0.787434 -0.615418  0.034755
			-0.981776 -0.162935 -0.097817
			-0.642145 -0.766228  0.023337
			-0.759409 -0.643091 -0.098654
			-0.913107  0.232396 -0.335003
			-0.849025  0.379889 -0.367206
			-0.782086  0.217586 -0.583950
			 0.260344 -0.955008 -0.142059
			 0.293152 -0.933545 -0.206293
			 0.160095 -0.911322 -0.379292
			 0.100889 -0.837815 -0.536551
			-0.092718 -0.462478 -0.881770
			-0.500178  0.124196 -0.856970
			-0.729136  0.041824 -0.683090
			-0.706487  0.297302 -0.642252
			-0.129450  0.391269  0.911126
			 0.001712  0.550429  0.834881
			 0.067184  0.641535  0.764146
			 0.106755  0.756349  0.645399
			 0.330471  0.802497  0.496776
			 0.275084  0.636281  0.720746
			 0.485595  0.870235  0.083004
			 0.435614  0.854966  0.281557
			 0.988462  0.132014  0.074270
			 0.631153  0.515410  0.579653
			 0.150442  0.581742  0.799340
			-0.327596  0.739065  0.588611
			-0.093909  0.759511  0.643680
			 0.994527  0.091536  0.050372
			 0.999855  0.012597 -0.011462
			 0.906463 -0.421541 -0.025055
			 0.541701 -0.833601 -0.108025
			-0.041791 -0.984699 -0.169178
			 0.316711 -0.937849 -0.141891
			-0.037670 -0.963340 -0.265625
			 0.063478 -0.995433 -0.071302
			 0.084254 -0.828453  0.553685
			 0.033409 -0.998404  0.045544
			 0.099639 -0.981570  0.163074
			 0.157146 -0.962272  0.222119
			 0.176466 -0.955426  0.236687
			 0.209311 -0.952095  0.222945
			 0.263352 -0.956756  0.123546
			 0.272295 -0.959403  0.073494
			 0.282258 -0.954904  0.092139
			 0.278654 -0.960291  0.013927
			 0.459876  0.884335 -0.080414
			 0.432356  0.884336 -0.176122
			-0.013139  0.983010 -0.183083
			-0.821090  0.476305 -0.314555
			-0.940460  0.028927 -0.338670
			-0.955447  0.291457 -0.046621
			 0.448677  0.892015  0.054744
			-0.844222 -0.535754 -0.015989
			-0.793751 -0.596993  0.116441
			-0.961297  0.232400 -0.147982
			-0.627216 -0.778199  0.031733
			-0.833171  0.456771 -0.311747
			-0.746476 -0.664918  0.025649
			-0.658582  0.470524 -0.587263
			-0.703458  0.505085 -0.500035
			-0.721737  0.594501 -0.354491
			-0.738708  0.338335 -0.582958
			-0.798408  0.307897 -0.517440
			-0.628013  0.626873 -0.461118
			-0.758122  0.229392 -0.610434
			-0.862030  0.204863 -0.463611
			 0.268613 -0.962970 -0.023129
			 0.212294 -0.968792 -0.127962
			-0.035368 -0.966526 -0.254119
			-0.279862 -0.815786 -0.506132
			-0.448680 -0.613559 -0.649793
			-0.665033 -0.607725 -0.434052
			-0.794227 -0.025860 -0.607070
			 0.169270  0.700519  0.693268
			 0.063788  0.707742  0.703586
			 0.087514  0.637887  0.765142
			 0.070572  0.726803  0.683211
			 0.234587  0.668666  0.705588
			 0.359874  0.730761  0.580068
			 0.349050  0.773051  0.529676
			 0.254653  0.598208  0.759802
			 0.367144  0.570583  0.734602
			 0.213017  0.486688  0.847206
			 0.394898  0.865961  0.306866
			 0.716818  0.219453  0.661825
			 0.417796  0.650283  0.634491
			 0.534650  0.551916  0.639952
			-0.171126  0.768045  0.617109
			-0.057096  0.892361  0.447696
			-0.045183  0.908987  0.414368
			-0.251332  0.905047  0.343107
			 0.125140  0.806609  0.577686
			 0.192536  0.853606  0.484031
			 0.999206 -0.010565  0.038422
			 0.814400 -0.210497  0.540781
			 0.885365 -0.464752  0.011630
			 0.568349 -0.822744  0.008469
			-0.080722 -0.994886  0.060713
			-0.356067 -0.920472 -0.161080
			 0.341494 -0.939411 -0.029812
			-0.116968 -0.988562 -0.095208
			 0.061776 -0.988228  0.139964
			 0.141222 -0.966971  0.212189
			 0.186457 -0.963985  0.189649
			 0.197342 -0.958230  0.207004
			 0.183069 -0.943953  0.274660
			 0.215349 -0.926844  0.307548
			 0.260698 -0.945708  0.194096
			 0.300011 -0.948273  0.103782
			 0.290257 -0.955299  0.056171
			 0.410508  0.911574 -0.022727
			 0.038538  0.999184 -0.012133
			-0.841045  0.540913  0.007468
			-0.940779 -0.338765  0.013155
			 0.390723  0.911411  0.129094
			-0.766997 -0.638370  0.064798
			-0.993715 -0.088893 -0.068038
			-0.913826  0.394345 -0.097023
			-0.630351 -0.766069  0.125682
			-0.712865  0.660892 -0.234617
			-0.746488  0.566030 -0.349810
			-0.784670 -0.617456  0.055152
			-0.774221  0.493161 -0.396703
			-0.717817  0.489265 -0.495337
			-0.796233  0.528958 -0.293627
			-0.738747 -0.304623 -0.601214
			-0.896788 -0.002097 -0.442456
			-0.704446  0.481185 -0.521744
			 0.251857 -0.966193 -0.055137
			-0.079575 -0.971724 -0.222307
			-0.503208 -0.717583 -0.481516
			 0.062594  0.764332  0.641778
			 0.215376  0.676504  0.704241
			-0.460140  0.264119  0.847651
			-0.416748  0.468906  0.778748
			 0.031713  0.435671  0.899547
			-0.427930  0.475365  0.768703
			 0.356749  0.757702  0.546459
			-0.103310  0.687391  0.718902
			 0.179706  0.631354  0.754386
			 0.020884  0.546246  0.837364
			 0.375172  0.867501  0.326630
			-0.044712  0.808219  0.587182
			 0.096556  0.653745  0.750530
			 0.313130 -0.074010  0.946822
			 0.201924  0.391601  0.897706
			-0.040160  0.904125  0.425376
			-0.050554  0.883835  0.465059
			 0.073329  0.814607  0.575360
			-0.002692  0.721586  0.692319
			-0.051072  0.727893  0.683786
			-0.001136  0.862004  0.506901
			-0.028129  0.758255  0.651351
			 0.029965  0.802923  0.595329
			 0.826546 -0.538086  0.165182
			 0.509021 -0.765779  0.393040
			 0.331425 -0.686165  0.647561
			 0.546551 -0.829793  0.112804
			-0.175878 -0.983377  0.045119
			 0.032233 -0.985835  0.164591
			-0.430136 -0.870122 -0.240562
			-0.323480 -0.935812 -0.140060
			 0.312594 -0.936061  0.161475
			 0.069821 -0.991535  0.109465
			-0.412292 -0.903931  0.113681
			 0.141809 -0.972927  0.182491
			 0.204337 -0.957649  0.202867
			 0.194033 -0.972066  0.132057
			 0.179693 -0.968429  0.172788
			 0.175648 -0.943679  0.280389
			 0.188752 -0.905389  0.380321
			 0.205863 -0.908470  0.363734
			 0.254689 -0.943440  0.212259
			 0.172249 -0.964367  0.200816
			 0.300296 -0.953188  0.035411
			 0.106580 -0.989740  0.095162
			 0.151357 -0.987615  0.041320
			 0.101914  0.988729  0.109675
			-0.783109  0.605310  0.142620
			-0.924046 -0.382260  0.003916
			 0.019020  0.959008  0.282742
			-0.762763 -0.645528  0.038540
			-0.771037  0.589656 -0.240433
			-0.594783  0.699373 -0.396372
			-0.786224  0.603189 -0.134222
			-0.932746 -0.355019 -0.062827
			-0.671577 -0.740694  0.018860
			-0.762183 -0.641644  0.085850
			-0.810596  0.543329 -0.218469
			-0.688555  0.672600 -0.271111
			-0.856806  0.492755 -0.151908
			-0.652279  0.680067 -0.334724
			-0.758162  0.527454 -0.383383
			-0.589325  0.696557 -0.409273
			-0.805424  0.555167 -0.207561
			-0.517451 -0.719109 -0.463818
			-0.568819 -0.713008 -0.409957
			-0.679854  0.250516 -0.689232
			-0.646501 -0.453387 -0.613577
			-0.261524 -0.954069 -0.146143
			 0.106150  0.752032  0.650523
			 0.183224  0.698179  0.692081
			 0.281126  0.648085  0.707781
			-0.919576 -0.063629  0.387727
			-0.947928  0.207526  0.241591
			-0.975201 -0.218609  0.034530
			-0.746170  0.256300  0.614443
			 0.064835  0.648702  0.758276
			-0.393593  0.645062  0.654965
			-0.133137  0.811797  0.568559
			-0.833441  0.242463  0.496576
			 0.048003 -0.190209  0.980569
			 0.061447  0.377327  0.924039
			 0.017494  0.801270  0.598047
			 0.009695  0.783765  0.620981
			-0.206467  0.534752  0.819398
			-0.217009  0.151137  0.964399
			-0.064570 -0.932285  0.355916
			-0.145569 -0.625842  0.766245
			-0.017950 -0.984979  0.171740
			 0.129098 -0.977067  0.169333
			-0.163614 -0.976789  0.138251
			-0.408834 -0.748419  0.522229
			-0.439223 -0.723519  0.532544
			-0.476083 -0.721449  0.502848
			-0.345730 -0.854858  0.386897
			-0.225840 -0.964780  0.134891
			 0.212157 -0.958783  0.189008
			 0.242804 -0.956514  0.161639
			 0.224900 -0.958994  0.172484
			 0.109403 -0.990317  0.085457
			 0.053550 -0.991437  0.119102
			 0.052961 -0.990857  0.124089
			 0.043834 -0.961143  0.272549
			-0.007283 -0.949551  0.313527
			-0.092770 -0.990327  0.103178
			-0.152721 -0.988231 -0.008738
			-0.503816  0.712837  0.487886
			-0.922648 -0.385518  0.009815
			-0.750987 -0.660299 -0.004945
			-0.947702 -0.036017 -0.317118
			-0.728002  0.653191 -0.208219
			-0.896347  0.419935 -0.142183
			-0.854055  0.503713 -0.129858
			-0.656827 -0.745586 -0.112602
			-0.825217 -0.564590  0.015977
			-0.742233 -0.668783  0.042650
			-0.787435  0.600569 -0.138792
			-0.726805  0.647379 -0.229466
			-0.677359  0.715116 -0.172609
			-0.588397  0.508251 -0.628864
			-0.333367  0.928699 -0.162433
			-0.379919 -0.919248 -0.103173
			-0.379026 -0.821498 -0.426005
			-0.462972 -0.481814 -0.743985
			 0.050169  0.762150  0.645454
			 0.037628  0.497078  0.866890
			 0.096985  0.616475  0.781379
			-0.919825 -0.390350  0.039360
			-0.821213 -0.432321  0.372436
			-0.892361  0.340144  0.296639
			-0.936817  0.339489  0.084390
			-0.937883  0.346794  0.010473
			-0.802072 -0.579067 -0.146157
			-0.776124  0.627056 -0.066568
			-0.895216  0.371772 -0.245710
			-0.456691  0.528262  0.715801
			-0.881606 -0.439802  0.171304
			-0.362823 -0.511939  0.778639
			-0.023599  0.625157  0.780142
			-0.169161  0.241075  0.955650
			-0.372745 -0.432824  0.820807
			-0.306974 -0.223920  0.925001
			 0.128127 -0.952386  0.276666
			 0.223082 -0.961490  0.160534
			 0.005335 -0.965956  0.258653
			-0.007875 -0.859931  0.510350
			 0.225162 -0.953975  0.198073
			 0.199666 -0.956047  0.214726
			 0.219144 -0.938843  0.265611
			 0.154547 -0.987840 -0.016952
			 0.073499 -0.997108  0.019324
			 0.007968 -0.997606  0.068701
			-0.056968 -0.984645  0.165014
			-0.301921 -0.945360  0.123035
			-0.132991 -0.976287  0.170813
			-0.916692  0.090032 -0.389320
			-0.762178 -0.637212 -0.114214
			-0.728449  0.677106 -0.104352
			-0.920589  0.385466 -0.062699
			-0.880730  0.464956 -0.090175
			-0.800174  0.589261 -0.111771
			-0.784572  0.608851 -0.117244
			-0.833576  0.550747 -0.042768
			-0.727328  0.676131 -0.117646
			-0.713573  0.686916 -0.137693
			-0.454998  0.884540 -0.102795
			-0.109951  0.321154 -0.940623
			-0.073903  0.996512  0.038755
			-0.029368  0.957474 -0.287020
			-0.223210 -0.971406 -0.080917
			 0.012098 -0.685601 -0.727877
			-0.112559  0.451126  0.885334
			-0.043072  0.135827  0.989796
			-0.091429  0.246181  0.964902
			-0.861748  0.420542  0.283789
			-0.882215  0.453651  0.126089
			-0.881498  0.472130  0.007315
			-0.891028  0.453692 -0.015271
			-0.395655  0.501099  0.769648
			-0.045904 -0.298669  0.953252
			 0.173997 -0.943041  0.283548
			 0.213658 -0.936281  0.278797
			 0.222001 -0.881540  0.416657
			 0.006281 -0.765432  0.643487
			 0.191916 -0.981403  0.003947
			 0.191087 -0.943071  0.272217
			 0.278887 -0.893224  0.352665
			 0.343099 -0.863972  0.368559
			 0.125826 -0.991999 -0.010332
			 0.232348 -0.969178 -0.081906
			 0.187211 -0.981942 -0.027250
			 0.085592 -0.992797  0.083839
			 0.019592 -0.991290  0.130235
			-0.004111 -0.997547 -0.069875
			-0.746485  0.664336 -0.037658
			-0.838946  0.543383 -0.030084
			-0.755778  0.654807 -0.005333
			-0.470713  0.874667 -0.115706
			-0.150940  0.980972 -0.122111
			 0.034410  0.269834 -0.962292
			-0.649578  0.700029 -0.296661
			-0.409389  0.851555  0.327497
			-0.029914  0.923347 -0.382800
			-0.314755 -0.781152 -0.539194
			 0.013230 -0.109485  0.993900
			-0.055373 -0.129127  0.990081
			-0.726878  0.490497  0.480688
			-0.877815  0.478300  0.025881
			-0.782876  0.581525  0.221209
			-0.847685  0.530211  0.017528
			 0.119600 -0.708232  0.695775
			 0.237660 -0.946520  0.218216
			-0.060695 -0.986888  0.149560
			-0.428929 -0.598666  0.676475
			 0.078216 -0.649181  0.756602
			-0.415492  0.084173  0.905694
			-0.414363 -0.212486  0.884959
			-0.247494  0.659902  0.709420
			 0.074082 -0.727107  0.682516
			-0.298982 -0.937046  0.180427
			-0.075966 -0.995621  0.054474
			 0.085805 -0.992312 -0.089192
			 0.072531 -0.997298 -0.011694
			-0.321102 -0.946974 -0.011580
			-0.323495 -0.945722 -0.030997
			-0.458923  0.888370 -0.013710
			-0.770977  0.636863  0.000113
			-0.456342  0.889718  0.012403
			-0.165270  0.985757 -0.031146
			-0.068526  0.997073 -0.033915
			-0.663782  0.099132 -0.741328
			-0.720506  0.675611 -0.156275
			-0.777566 -0.571998 -0.261169
			-0.928840 -0.298739 -0.219113
			-0.860907  0.098751 -0.499087
			-0.899070 -0.419543  0.125125
			-0.782086  0.622774  0.022233
			-0.936608  0.032464  0.348871
			-0.901958 -0.424144 -0.081076
			-0.313831 -0.123988  0.941349
			-0.734361  0.216917  0.643165
			-0.699511  0.713985  0.030156
			-0.743918  0.642750  0.182916
			-0.789417  0.612713 -0.037462
			-0.838102  0.543541  0.046347
			-0.482652 -0.813554  0.324310
			-0.683879  0.178212  0.707496
			-0.673721 -0.573907  0.465543
			-0.567001  0.775827  0.276771
			-0.539394  0.840870  0.044638
			-0.066143  0.996439  0.052290
			-0.269306  0.952185  0.144283
			-0.578971 -0.736235  0.350357
			-0.523466 -0.805863  0.276709
			-0.778293 -0.614575  0.128674
			-0.749836 -0.661619  0.002430
			-0.183583  0.982791  0.020491
			-0.481572  0.870786  0.099097
			-0.182916  0.981773  0.051603
			-0.062949  0.996908  0.047038
			-0.740583  0.671660  0.020215
			-0.996184 -0.087274 -0.000053
			-0.518448  0.855080  0.007039
			-0.782285  0.215106  0.584602
			-0.910629 -0.030593  0.412090
			-0.123801  0.992292 -0.005381
			-0.695540  0.718030  0.025621
			-0.075055  0.996650 -0.032495
			-0.850017 -0.466787  0.244092
			-0.736016  0.675518  0.044215
			-0.090723  0.995297  0.033962
			 0.515865 -0.560967  0.647456
			 0.258184 -0.962405 -0.084367
			 0.942505 -0.304715 -0.137236
			 0.835366  0.491137 -0.246878
			-0.122611 -0.957034 -0.262779
			 0.137149 -0.821201  0.553912
			 0.334409 -0.372679 -0.865610
			 0.097090 -0.026394 -0.994926
			 0.969002  0.243214  0.043373
			 0.417533  0.717341 -0.557753
			-0.092397 -0.961795 -0.257706
			 0.386383 -0.624909  0.678378
			 0.120686 -0.958964  0.256561
			 0.251273  0.663089 -0.705106
			 0.272701 -0.930187 -0.245736
			 0.234868  0.120723 -0.964501
			 0.829515  0.551912 -0.085426
			 0.267240  0.644503 -0.716379
			 0.399804 -0.696346  0.596036
			 0.301102 -0.711782  0.634590
			 0.215611 -0.926318  0.308945
			 0.236769 -0.951718  0.195377
			 0.226723 -0.929781  0.290009
			 0.160284  0.682130 -0.713448
			 0.214535 -0.950894  0.223103
			 0.196105 -0.944764  0.262609
			 0.577031 -0.746574  0.331155
			 0.657933  0.657170 -0.367767
			 0.472183  0.460632 -0.751572
			 0.204345  0.591127 -0.780264
			 0.319291  0.190321 -0.928349
			 0.167749  0.950470 -0.261663
			 0.044156  0.968051  0.246834
			 0.103928  0.961469 -0.254512
			 0.340256 -0.877012  0.339228
			 0.057075  0.161945  0.985148
			 0.269355 -0.038020  0.962290
			 0.284427 -0.609772  0.739783
			 0.284895 -0.677040  0.678566
			 0.125758 -0.960608  0.247823
			-0.092033 -0.991351  0.093554
			 0.051550  0.894103 -0.444884
			-0.152961 -0.941388  0.300653
			 0.207607 -0.919053  0.335023
			 0.901578  0.409364 -0.139920
			 0.228529 -0.973476  0.010888
			 0.403818  0.871674 -0.277697
			 0.546379  0.782862 -0.297651
			 0.373172  0.651936 -0.660092
			-0.068668  0.630619 -0.773049
			-0.107733  0.882354 -0.458088
			-0.061017  0.984950 -0.161709
			 0.866084  0.498887  0.031772
			 0.099196  0.994958  0.014773
			 0.128091  0.317064  0.939714
			 0.154849  0.877786  0.453336
			 0.250568  0.944466 -0.212602
			 0.310386 -0.349868  0.883885
			 0.308614  0.327855  0.892899
			 0.734697 -0.353103  0.579257
			 0.090924 -0.994950  0.042520
			-0.854544 -0.450303  0.258808
			 0.617292 -0.786356  0.024394
			-0.703758 -0.334732  0.626641
			-0.806307 -0.261333 -0.530635
			-0.767866 -0.637724 -0.060743
			-0.131227  0.759820 -0.636752
			-0.423277  0.876409  0.229661
			-0.965254  0.017448 -0.260729
			-0.052542 -0.977056  0.206399
			-0.614386 -0.754390  0.231140
			 0.421534 -0.184599 -0.887824
			-0.060199 -0.996194 -0.063040
			-0.096975  0.679779 -0.726977
			-0.194259  0.853785 -0.483027
			-0.627255  0.536868 -0.564202
			-0.802967  0.315945 -0.505394
			-0.740313  0.640620  0.203820
			-0.881436  0.368995 -0.294811
			 0.322713  0.818819  0.474754
			 0.137702  0.986497  0.088673
			 0.002048  0.954803 -0.297233
			 0.183334  0.396526  0.899531
			-0.100103  0.507663  0.855720
			 0.872390 -0.351355  0.339832
			-0.081919  0.943610  0.320764
			-0.005893 -0.982630  0.185481
			-0.908337 -0.254249  0.332087
			-0.762108  0.361233  0.537310
			-0.682354  0.658899  0.316615
			-0.877053  0.202958  0.435415
			-0.035972 -0.675374  0.736598
			 0.017475 -0.998643  0.049065
			-0.389923 -0.510201 -0.766586
			-0.880786 -0.462228  0.102766
			-0.996955  0.034644 -0.069864
			-0.966635  0.068676 -0.246781
			-0.999538  0.024799  0.017546
			-0.362788  0.676070 -0.641338
			 0.353820  0.722223 -0.594311
			-0.456009  0.581704 -0.673555
			-0.803067 -0.558642 -0.207372
			 0.512424 -0.436252 -0.739666
			 0.037804 -0.938132 -0.344209
			-0.787652 -0.481098 -0.384900
			-0.037301 -0.146403 -0.988522
			 0.086612  0.662927  0.743657
			-0.200469  0.909529  0.364100
			-0.330126  0.770387  0.545455
			 0.001112 -0.093467  0.995622
			-0.850101 -0.155447  0.503154
			-0.754049  0.416240  0.508089
			-0.380756  0.376368  0.844614
		</DataArray>
	</PointData>
	<Points>
		<DataArray type="Float32" NumberOfComponents="3" format="ascii">
			 0.180764 -0.005622 -0.010565
			 0.177845 -0.005878 -0.009706
			 0.177879 -0.006266 -0.008788
			 0.179035 -0.007656 -0.008788
			 0.177682 -0.004010 -0.010576
			 0.180602 -0.003754 -0.010663
			 0.178159 -0.007732 -0.010663
			 0.178272 -0.007723 -0.012538
			 0.180764 -0.005622 -0.011098
			 0.180601 -0.003755 -0.011607
			 0.176047 -0.006035 -0.008788
			 0.177886 -0.006345 -0.006913
			 0.178728 -0.007683 -0.006913
			 0.179201 -0.009523 -0.008788
			 0.178752 -0.009563 -0.010663
			 0.174740 -0.005613 -0.008788
			 0.177682 -0.004010 -0.011361
			 0.174726 -0.005451 -0.010663
			 0.174730 -0.005498 -0.012538
			 0.179578 -0.005726 -0.012538
			 0.178172 -0.009614 -0.011558
			 0.177845 -0.005878 -0.012956
			 0.175027 -0.008894 -0.012538
			 0.174950 -0.008013 -0.012907
			 0.174787 -0.006145 -0.013150
			 0.177719 -0.004428 -0.012538
			 0.177026 -0.005949 -0.006913
			 0.175212 -0.004226 -0.006913
			 0.177914 -0.006659 -0.005038
			 0.178464 -0.007706 -0.005038
			 0.179075 -0.009534 -0.006913
			 0.178983 -0.011425 -0.008788
			 0.178817 -0.011439 -0.010663
			 0.174623 -0.004277 -0.007777
			 0.171764 -0.004528 -0.007631
			 0.171906 -0.006146 -0.008788
			 0.173769 -0.006234 -0.010663
			 0.174038 -0.006211 -0.012538
			 0.178336 -0.011481 -0.011749
			 0.176747 -0.011620 -0.012538
			 0.175169 -0.010516 -0.012538
			 0.175114 -0.009881 -0.011990
			 0.172255 -0.010131 -0.011820
			 0.174128 -0.008085 -0.012538
			 0.176149 -0.006026 -0.005038
			 0.175249 -0.004223 -0.005038
			 0.174574 -0.003717 -0.006913
			 0.174543 -0.003362 -0.005038
			 0.177997 -0.007614 -0.003163
			 0.178713 -0.009566 -0.005038
			 0.178849 -0.011436 -0.006913
			 0.178630 -0.013338 -0.008788
			 0.178625 -0.013338 -0.010663
			 0.171693 -0.003712 -0.006913
			 0.168646 -0.004800 -0.007219
			 0.170293 -0.006539 -0.008788
			 0.172055 -0.007844 -0.010663
			 0.168957 -0.008349 -0.010663
			 0.172091 -0.008263 -0.011180
			 0.176643 -0.013511 -0.012538
			 0.175277 -0.011749 -0.013307
			 0.172317 -0.010840 -0.012538
			 0.172418 -0.011999 -0.014111
			 0.169229 -0.010396 -0.012538
			 0.175253 -0.006104 -0.003163
			 0.175085 -0.004237 -0.003163
			 0.174488 -0.002727 -0.003163
			 0.171621 -0.002887 -0.005038
			 0.171601 -0.002660 -0.004379
			 0.173802 -0.002467 -0.003163