<?xml version="1.0"?>
<VTKFile type="PolyData" version="0.1" byte_order="LittleEndian" compressor="vtkZLibDataCompressor">
	<PolyData>
		<Piece NumberOfPoints="1539" NumberOfVerts="0" NumberOfLines="0" NumberOfStrips="0" NumberOfPolys="3086">
		<PointData Normals="Normals">
		<DataArray type="Float32" Name="Normals" NumberOfComponents="3" format="ascii">
			 0.869998 -0.472896 -0.139546
			 0.996022  0.000896 -0.089099
			 0.877892 -0.279045 -0.389152
			 0.663053 -0.660021 -0.353175
			 0.412239 -0.911063  0.004895
			 0.714243 -0.693698  0.092950
			 0.996319 -0.003387 -0.085659
			 0.916399  0.128915 -0.378939
			 0.996326  0.003531 -0.085565
			 0.932229  0.336574 -0.132918
			 0.657872 -0.283799 -0.697612
			 0.701827  0.071993 -0.708700
			 0.573070 -0.682488 -0.453652
			 0.421294 -0.902340 -0.091073
			 0.395615 -0.187871 -0.898996
			 0.612244 -0.325377 -0.720616
			 0.339837 -0.934638  0.104701
			 0.238836 -0.967793  0.079587
			 0.253119 -0.964500  0.075301
			 0.948763 -0.251497  0.191303
			 0.425926 -0.884008  0.192655
			 0.713862 -0.550487  0.432856
			 0.933345  0.137594  0.331564
			 0.764668  0.431930 -0.478245
			 0.905487  0.415581  0.085937
			 0.793582  0.599682 -0.103003
			 0.756487  0.643994  0.114015
			 0.464441 -0.074557 -0.882460
			 0.659481  0.146980 -0.737212
			 0.362571 -0.843557 -0.396174
			 0.296276 -0.462041 -0.835906
			 0.268641 -0.962792  0.029380
			 0.369673 -0.313503 -0.874676
			 0.364676 -0.155291 -0.918094
			 0.365177 -0.169329 -0.915409
			 0.318970 -0.938361  0.133181
			 0.260336 -0.958063  0.119750
			 0.278244 -0.954468  0.107570
			 0.303723 -0.950070  0.071543
			 0.280163 -0.959452  0.030980
			 0.260585 -0.957052  0.127070
			 0.511386 -0.751938  0.416021
			 0.778122 -0.131489  0.614196
			 0.712494  0.554441  0.430055
			 0.721875  0.310117  0.618646
			 0.793184  0.515194 -0.324707
			 0.765736  0.643141 -0.004325
			 0.708788  0.678068  0.194533
			 0.452569 -0.134491 -0.881529
			 0.433713 -0.293121 -0.852040
			 0.759731  0.325454 -0.562929
			 0.678951  0.192487 -0.708502
			 0.567556  0.037276 -0.822490
			 0.406966 -0.775879 -0.482068
			 0.272616 -0.960497 -0.055903
			 0.534320 -0.289778 -0.794060
			 0.481388 -0.160136 -0.861755
			 0.475841 -0.209355 -0.854252
			 0.351188 -0.884049  0.308422
			 0.276325 -0.929498  0.244291
			 0.235763 -0.929691  0.283002
			 0.249852 -0.967999 -0.023484
			 0.366934 -0.928552  0.056139
			 0.195497 -0.980569  0.016291
			 0.240986 -0.968537  0.062145
			 0.308148 -0.945601  0.104320
			 0.262670 -0.951374  0.160913
			 0.497698 -0.192947  0.845617
			 0.317267 -0.652738  0.687949
			 0.528350  0.336038  0.779695
			 0.574323  0.491744  0.654478
			 0.481490  0.577207  0.659545
			 0.625161  0.645769  0.438356
			 0.755108  0.637005 -0.155039
			 0.700309  0.704583  0.114584
			 0.578508  0.743054  0.336450
			 0.614025  0.717380  0.329148
			 0.464356 -0.156191 -0.871767
			 0.492744 -0.204856 -0.845717
			 0.739785  0.561372 -0.370918
			 0.714825  0.300955 -0.631230
			 0.495426 -0.022569 -0.868357
			 0.609250 -0.132267 -0.781869
			 0.247484 -0.542669 -0.802660
			 0.112294 -0.763697 -0.635733
			 0.457239 -0.226103 -0.860122
			 0.174601 -0.964746 -0.196924
			 0.198646 -0.979545 -0.032110
			 0.512735 -0.113254 -0.851044
			 0.329535 -0.559310  0.760644
			 0.186924 -0.956457  0.224166
			 0.166724 -0.936801  0.307582
			 0.169449 -0.853154  0.493372
			 0.244375 -0.960057  0.136277
			 0.110946 -0.993220  0.034713
			 0.103142 -0.993620  0.045618
			 0.090551 -0.977313  0.191466
			 0.190467 -0.957255  0.217680
			 0.293815 -0.137078  0.945982
			 0.213605  0.276844  0.936873
			 0.299406 -0.027503  0.953729
			 0.259698  0.505501  0.822816
			 0.358686  0.568929  0.740043
			 0.357235  0.554045  0.751942
			 0.428354  0.682309  0.592425
			 0.749232  0.654570 -0.100940
			 0.719489  0.681432  0.134109
			 0.546965  0.692424  0.470508
			 0.692555  0.654902  0.302442
			 0.624765  0.659747  0.417615
			 0.350460 -0.015099 -0.936456
			 0.372791 -0.038220 -0.927128
			 0.570591 -0.054154 -0.819447
			 0.341717  0.060724 -0.937839
			 0.314363 -0.089763 -0.945049
			 0.767712  0.569922 -0.292929
			 0.512844  0.218827 -0.830124
			 0.575925  0.394522 -0.716005
			 0.731325  0.535031 -0.422972
			 0.307995  0.112374 -0.944728
			-0.064107 -0.814377 -0.576785
			-0.082381 -0.879241 -0.469199
			-0.026433 -0.954342 -0.297545
			 0.358665 -0.252777 -0.898590
			 0.140032 -0.401893 -0.904916
			-0.023964 -0.693700 -0.719865
			 0.077364 -0.996292 -0.037657
			 0.328399  0.131977  0.935273
			 0.233668 -0.462337  0.855362
			 0.107703 -0.951791  0.287217
			-0.025940 -0.910700  0.412254
			-0.018205 -0.797788  0.602663
			 0.079894 -0.959655  0.269592
			-0.063890 -0.997930  0.007362
			-0.048283 -0.995428  0.082409
			-0.031118 -0.971006  0.237022
			-0.109336 -0.908305  0.403766
			 0.207828  0.385540  0.898981
			 0.171501  0.365053  0.915054
			 0.177405  0.439439  0.880580
			 0.228447  0.588889  0.775256
			 0.463228  0.628507  0.624818
			 0.213923  0.415996  0.883846
			 0.301190  0.466353  0.831745
			 0.472502  0.597977  0.647430
			 0.759069  0.650149 -0.033458
			 0.449499  0.592486  0.668514
			 0.618775  0.615103  0.488638
			 0.749372  0.661416  0.031148
			 0.546099  0.606272  0.578109
			 0.733781  0.633760  0.244773
			 0.282425  0.042593 -0.958344
			 0.315764  0.133916 -0.939340
			 0.231870  0.052627 -0.971322
			 0.131975 -0.137151 -0.981719
			 0.410072  0.228525 -0.882959
			 0.256300  0.209995 -0.943511
			 0.146891 -0.117492 -0.982150
			 0.060735 -0.304974 -0.950422
			 0.740652  0.630418 -0.232396
			 0.385651  0.164650 -0.907835
			 0.566875  0.429325 -0.703088
			 0.653503  0.547821 -0.522327
			 0.170860  0.137916 -0.975595
			 0.188113  0.083744 -0.978571
			-0.087360 -0.866053 -0.492260
			-0.141898 -0.937839 -0.316738
			-0.129313 -0.982218 -0.136113
			-0.023367 -0.532185 -0.846305
			-0.042933 -0.733494 -0.678338
			 0.357839  0.393821  0.846674
			 0.339459  0.165434  0.925959
			-0.023384 -0.560077  0.828111
			 0.118256 -0.119938  0.985713
			-0.209532 -0.728718  0.651972
			-0.191777 -0.838502  0.510035
			-0.196941 -0.823447  0.532118
			-0.175342 -0.984504 -0.002750
			-0.173530 -0.979553  0.101803
			-0.187231 -0.930883  0.313691
			-0.202934 -0.809285  0.551249
			-0.253144 -0.811122  0.527256
			 0.183358  0.549308  0.815255
			 0.366607  0.428476  0.825838
			 0.391254  0.413837  0.821985
			 0.313114  0.333038  0.889408
			 0.354939  0.588516  0.726407
			 0.332047  0.503755  0.797481
			 0.285608  0.543164  0.789558
			 0.345805  0.518466  0.782056
			 0.755406  0.655217 -0.007294
			 0.399351  0.691350  0.602125
			 0.665390  0.675167  0.318442
			 0.459089  0.783507  0.418752
			 0.692422  0.719043  0.059407
			 0.248626  0.206829 -0.946259
			 0.060503 -0.181211 -0.981581
			 0.041779 -0.164644 -0.985468
			 0.196011  0.326258 -0.924735
			 0.078650  0.044679 -0.995901
			 0.154274  0.310514 -0.937966
			 0.718135  0.641702 -0.269259
			 0.442833  0.253602 -0.859991
			 0.530845  0.464728 -0.708683
			 0.511469  0.629229 -0.585210
			 0.609008  0.749391 -0.259851
			 0.159581  0.242391 -0.956964
			 0.147096  0.194715 -0.969767
			 0.102574  0.058736 -0.992990
			 0.341326  0.398785 -0.851156
			 0.228112  0.286432 -0.930549
			 0.101067  0.143123 -0.984531
			-0.082347 -0.840781 -0.535076
			-0.103279 -0.920076 -0.377880
			-0.134020 -0.956777 -0.258103
			-0.165890 -0.978415 -0.123226
			-0.013559 -0.631663 -0.775124
			 0.099676 -0.342943 -0.934053
			 0.486118  0.304175  0.819248
			 0.264854  0.282553  0.921963
			 0.344649  0.334560  0.877090
			-0.147299 -0.303070  0.941516
			-0.052355  0.106751  0.992907
			-0.249244 -0.785371  0.566631
			-0.220530 -0.487170  0.845004
			-0.179096 -0.983660  0.018360
			-0.183315 -0.970347  0.157554
			-0.230012 -0.891546  0.390179
			-0.276902 -0.837287  0.471461
			-0.237532 -0.778405  0.581089
			-0.219233 -0.795373  0.565083
			 0.394393  0.409369  0.822722
			 0.454981  0.439361  0.774567
			 0.326591  0.485538  0.810920
			 0.322450  0.556678  0.765594
			 0.298128  0.514072  0.804270
			 0.261373  0.514765  0.816518
			 0.351850  0.486360  0.799784
			 0.285753  0.574876  0.766722
			 0.377315  0.669064  0.640302
			 0.322387  0.784474  0.529780
			 0.405556  0.809483  0.424573
			 0.370630  0.819746  0.436635
			 0.580029  0.795292  0.176284
			 0.435331  0.889988  0.135673
			 0.087594 -0.089614 -0.992117
			 0.052718 -0.035494 -0.997978
			 0.148926  0.280476 -0.948237
			 0.084265  0.236753 -0.967909
			 0.477797  0.662655 -0.576712
			 0.346986  0.494653 -0.796818
			 0.391914  0.764246 -0.512183
			 0.425836  0.881612 -0.203527
			 0.149512  0.220251 -0.963917
			 0.112371  0.134239 -0.984557
			 0.186715  0.401666 -0.896550
			 0.083898  0.116234 -0.989672
			 0.119381  0.271621 -0.954971
			-0.149918 -0.921368 -0.358616
			-0.029624 -0.738723 -0.673358
			-0.088816 -0.896679 -0.433680
			-0.121271 -0.924068 -0.362481
			-0.130584 -0.966296 -0.221855
			-0.182921 -0.978295 -0.097359
			 0.109190 -0.276198 -0.954878
			 0.050267 -0.684969 -0.726836
			 0.127718  0.015551 -0.991689
			 0.034297  0.258795  0.965323
			 0.125537  0.358929  0.924884
			-0.181037 -0.006785  0.983453
			-0.139605  0.133278  0.981197
			-0.201500 -0.804183  0.559184
			-0.195549 -0.750334  0.631474
			-0.202998 -0.555273  0.806513
			-0.133491 -0.096547  0.986336
			-0.231413 -0.972807  0.009715
			-0.270820 -0.940133  0.206896
			-0.285077 -0.803555  0.522524
			-0.205724 -0.855494  0.475192
			-0.154528 -0.817072  0.555440
			-0.192249 -0.822617  0.535109
			 0.318657  0.558803  0.765635
			 0.167987  0.528433  0.832189
			 0.104612  0.404753  0.908422
			 0.188686  0.570866  0.799068
			 0.112660  0.543155  0.832040
			 0.124412  0.614043  0.779405
			 0.085330  0.563181  0.821916
			 0.245808  0.707958  0.662098
			 0.135475  0.739182  0.659739
			 0.283814  0.871665  0.399561
			 0.329659  0.931124  0.155989
			 0.342096  0.938133 -0.053632
			 0.045463  0.011008 -0.998905
			 0.073853  0.018405 -0.997099
			 0.105037  0.160637 -0.981409
			 0.130056  0.280263 -0.951072
			 0.140726  0.284669 -0.948241
			 0.098940  0.260967 -0.960264
			 0.095737  0.301917 -0.948515
			 0.082663  0.150348 -0.985171
			 0.372487  0.610248 -0.699179
			 0.270111  0.581525 -0.767378
			 0.376102  0.784709 -0.492726
			 0.294315  0.611708 -0.734297
			 0.331749  0.857547 -0.393137
			 0.194128  0.463212 -0.864725
			 0.087663  0.094573 -0.991651
			 0.140563  0.214036 -0.966659
			-0.038959 -0.852366 -0.521492
			-0.018453 -0.905577 -0.423781
			-0.052693 -0.956917 -0.285540
			-0.112701 -0.984017 -0.137875
			-0.188464 -0.980555 -0.054712
			 0.107853 -0.410037 -0.905669
			 0.155761 -0.002096 -0.987793
			 0.012283 -0.803155 -0.595643
			 0.110864  0.119865 -0.986581
			-0.065809  0.248958  0.966276
			-0.129526  0.110767  0.985370
			-0.141983  0.145628  0.979098
			-0.172090 -0.755877  0.631693
			-0.108364 -0.810072  0.576229
			-0.140057 -0.568380  0.810758
			-0.095510  0.148459  0.984296
			-0.031669 -0.193051  0.980677
			-0.008990  0.177474  0.984085
			-0.136201 -0.990286 -0.027969
			-0.168853 -0.981197  0.093498
			-0.195316 -0.927910  0.317545
			-0.028586 -0.844588  0.534654
			-0.149615 -0.866193  0.476785
			-0.078842 -0.868784  0.488875
			 0.040452  0.459603  0.887203
			 0.069316  0.617413  0.783579
			-0.028646  0.300704  0.953287
			 0.036561  0.586254  0.809302
			 0.021676  0.592929  0.804963
			 0.006888  0.559529  0.828782
			 0.162026  0.825376  0.540835
			 0.044229  0.668350  0.742531
			 0.214444  0.922250  0.321667
			 0.279107  0.944795  0.171645
			 0.347443  0.934980 -0.071388
			 0.116032  0.113821 -0.986702
			 0.097437  0.286294 -0.953175
			 0.075118  0.273513 -0.958931
			 0.058988  0.098328 -0.993404
			 0.107581  0.297200 -0.948735
			 0.091723  0.321676 -0.942396
			 0.317543  0.723695 -0.612725
			 0.259433  0.683853 -0.681938
			 0.285909  0.701075 -0.653261
			 0.359544  0.852679 -0.379035
			 0.156740  0.283361 -0.946118
			 0.165526  0.419388 -0.892589
			 0.193717  0.600311 -0.775951
			 0.118405  0.167334 -0.978764
			 0.069269  0.100804 -0.992492
			-0.003033 -0.861448 -0.507837
			-0.006479 -0.900513 -0.434782
			 0.009982 -0.964741 -0.263013
			-0.086253 -0.991836 -0.093924
			-0.000955 -0.995719 -0.092426
			 0.096151 -0.570947 -0.815337
			 0.172852  0.025133 -0.984627
			-0.009251 -0.834766 -0.550527
			 0.142188  0.339225 -0.929897
			 0.158555  0.169676 -0.972662
			 0.155155  0.036710 -0.987208
			-0.120394  0.100670  0.987609
			-0.062067  0.289938  0.955031
			-0.052603 -0.605652  0.793989
			-0.031002 -0.799647  0.599670
			-0.042054  0.142140  0.988953
			 0.019908 -0.238944  0.970829
			 0.024747  0.176472  0.983994
			 0.014392  0.194697  0.980758
			-0.009402 -0.999955  0.001258
			-0.025955 -0.996169  0.083509
			-0.002337 -0.940103  0.340884
			-0.029821 -0.849593  0.526594
			 0.001324 -0.868836  0.495098
			 0.019838  0.499510  0.866081
			 0.033853  0.624006  0.780686
			 0.012715  0.574811  0.818187
			 0.137655  0.858000  0.494861
			 0.092789  0.755191  0.648905
			 0.032465  0.658872  0.751554
			 0.033789  0.586934  0.808930
			 0.279061  0.959673  0.033945
			 0.191914  0.899619  0.392243
			 0.249824  0.959473  0.130381
			 0.299755  0.900781 -0.314229
			 0.142785  0.300563 -0.943013
			 0.078672  0.147816 -0.985881
			 0.064267  0.073904 -0.995192
			 0.095848  0.384695 -0.918054
			 0.063960  0.128674 -0.989622
			 0.312476  0.799493 -0.513001
			 0.257489  0.761571 -0.594735
			 0.109684  0.307465 -0.945217
			 0.140976  0.415457 -0.898622
			 0.261131  0.834873 -0.484560
			 0.154252  0.466414 -0.871013
			 0.168596  0.568411 -0.805285
			 0.226725  0.740634 -0.632501
			 0.081481  0.245736 -0.965906
			-0.010907 -0.868179 -0.496132
			-0.015524 -0.913895 -0.405655
			-0.023805 -0.971472 -0.235955
			-0.026221 -0.998308 -0.051905
			-0.040456 -0.998142  0.045559
			 0.101817 -0.436874 -0.893742
			 0.048529 -0.839871 -0.540613
			-0.001451 -0.845421 -0.534098
			 0.148823  0.085594 -0.985152
			 0.122502  0.000071 -0.992468
			 0.145218  0.113788 -0.982835
			 0.188410  0.145537 -0.971247
			 0.143651  0.333850 -0.931616
			 0.141618  0.110792 -0.983702
			-0.049477  0.252128  0.966428
			-0.006905 -0.899020  0.437852
			-0.005136 -0.739227  0.673437
			 0.036818 -0.320423  0.946559
			-0.006119  0.234428  0.972114
			 0.033211  0.184211  0.982325
			 0.036595  0.199231  0.979269
			 0.040410  0.260527  0.964620
			-0.072045 -0.991073  0.112176
			-0.055964 -0.951289  0.303179
			-0.045335 -0.938047  0.343529
			-0.003960 -0.796424  0.604726
			-0.102041 -0.812272  0.574284
			-0.006878 -0.895069  0.445875
			 0.010962  0.599455  0.800334
			 0.013262  0.392780  0.919537
			 0.001019  0.402342  0.915489
			 0.042709  0.585611  0.809466
			 0.084180  0.756806  0.648196
			 0.052526  0.631075  0.773941
			 0.041445  0.566438  0.823061
			 0.257062  0.951268 -0.170320
			 0.190457  0.952921  0.235941
			 0.151774  0.831315  0.534677
			 0.218056  0.969924  0.108158
			 0.056335  0.095299 -0.993853
			 0.063253  0.189861 -0.979771
			 0.095252  0.493260 -0.864651
			 0.066719  0.457607 -0.886648
			 0.063417  0.184332 -0.980816
			 0.048984  0.087799 -0.994933
			 0.041249  0.096270 -0.994500
			 0.115922  0.419859 -0.900156
			 0.261102  0.944958 -0.197179
			 0.282066  0.915760 -0.286047
			 0.160863  0.525267 -0.835594
			 0.235227  0.837572 -0.493094
			 0.171259  0.557860 -0.812073
			 0.075621  0.361060 -0.929472
			 0.046461 -0.843762 -0.534702
			 0.004658 -0.945716 -0.324961
			-0.086694 -0.981087 -0.173066
			-0.116840 -0.992732 -0.028823
			-0.091868 -0.993632  0.065236
			-0.064464 -0.987884  0.141170
			 0.174417 -0.574676 -0.799579
			 0.193280 -0.024075 -0.980848
			 0.131860 -0.883889 -0.448725
			 0.075859 -0.864607 -0.496689
			 0.191780  0.100755 -0.976252
			 0.163957  0.050383 -0.985180
			 0.117564  0.381924 -0.916686
			 0.109992  0.369630 -0.922646
			 0.016780 -0.715138  0.698782
			 0.045759 -0.887890  0.457775
			 0.041421 -0.704597  0.708398
			 0.045768 -0.199143  0.978901
			 0.025087  0.155185  0.987567
			 0.008156  0.391699  0.920057
			 0.066614  0.179534  0.981494
			 0.077933  0.221710  0.971993
			 0.042157  0.490905  0.870193
			 0.062229  0.501378  0.862988
			 0.022286 -0.951363  0.307265
			-0.011994 -0.820637  0.571324
			 0.112884 -0.798445  0.591391
			 0.124482 -0.792818  0.596610
			 0.114415 -0.905925  0.407689
			 0.003753  0.519162  0.854667
			 0.013185  0.588685  0.808255
			 0.011873  0.566716  0.823828
			 0.081295  0.687644  0.721483
			 0.051636  0.592854  0.803653
			 0.023238  0.524233  0.851258
			 0.136782  0.814264  0.564149
			 0.209044  0.972324 -0.104343
			 0.193556  0.980427 -0.036031
			 0.166255  0.949233  0.267050
			 0.039561  0.173568 -0.984027
			 0.085715  0.611959 -0.786231
			 0.094173  0.526961 -0.844656
			 0.077084  0.239252 -0.967893
			 0.045084  0.106487 -0.993291
			 0.045220  0.224095 -0.973518
			 0.030978  0.195870 -0.980140
			 0.106694  0.613585 -0.782388
			 0.163746  0.734058 -0.659049
			 0.189395  0.921718 -0.338475
			 0.056262  0.377917 -0.924129
			 0.063022  0.548295 -0.833907
			 0.098299 -0.938829 -0.330056
			 0.179790 -0.882827 -0.433926
			 0.103284 -0.969802 -0.220943
			 0.060540 -0.995391 -0.074378
			 0.075520 -0.997113 -0.007903
			 0.061896 -0.995995  0.064528
			-0.052540 -0.994883  0.086293
			 0.164749 -0.777428 -0.607012
			 0.199546 -0.461954 -0.864164
			 0.212426 -0.063635 -0.975103
			 0.215853  0.109557 -0.970260
			 0.184205 -0.861258 -0.473606
			 0.163723 -0.906651 -0.388818
			 0.166609  0.124001 -0.978195
			 0.093879  0.485382 -0.869247
			 0.115872  0.324861 -0.938637
			 0.117467  0.462254 -0.878933
			 0.127077 -0.843858  0.521302
			 0.107771 -0.582940  0.805336
			 0.114912 -0.141591  0.983233
			 0.072362  0.141837  0.987242
			 0.098147  0.127137  0.987017
			 0.096624  0.228072  0.968838
			 0.070586  0.519394  0.851615
			 0.029752  0.602977  0.797203
			 0.025998  0.651786  0.757958
			 0.207124 -0.939327  0.273432
			 0.212653 -0.902746  0.373937
			 0.167335 -0.854415  0.491909
			 0.284278 -0.877075  0.387203
			 0.228460 -0.634511  0.738378
			 0.179526 -0.714028  0.676708
			 0.017358  0.562659  0.826507
			 0.076162  0.646626  0.758996
			 0.021362  0.552518  0.833227
			 0.010464  0.511364  0.859301
			 0.096130  0.775058  0.624535
			 0.136715  0.916433 -0.376110
			 0.145342  0.989334  0.009717
			 0.123608  0.929589  0.347253
			 0.121408  0.472353 -0.873008
			 0.118120  0.347075 -0.930369
			 0.141220  0.275773 -0.950793
			 0.065767  0.202266 -0.977120
			 0.002564  0.210021 -0.977693
			 0.023885  0.344589 -0.938450
			-0.000161  0.346522 -0.938042
			 0.087563  0.798501 -0.595591
			 0.027623  0.527151 -0.849322
			 0.060741  0.752222 -0.656104
			 0.277259 -0.913929 -0.296414
			 0.252920 -0.928791 -0.270885
			 0.256066 -0.903551 -0.343549
			 0.231805 -0.964347 -0.127680
			 0.246136 -0.968996 -0.021551
			 0.218981 -0.911158  0.349053
			 0.139817 -0.988625  0.055422
			 0.108748 -0.266149 -0.957778
			 0.221796 -0.408456 -0.885421
			 0.227666 -0.717872 -0.657897
			 0.265437 -0.856645 -0.442383
			 0.202262 -0.887176 -0.414740
			 0.102568 -0.023621 -0.994445
			 0.162654  0.074405 -0.983874
			 0.131579  0.212088 -0.968352
			 0.081613  0.589559 -0.803592
			 0.065791  0.459483 -0.885747
			 0.134687  0.469606 -0.872542
			 0.078259  0.255975 -0.963511
			 0.091359  0.420390 -0.902732
			 0.116824 -0.076987  0.990164
			 0.152113  0.142029  0.978105
			 0.154604  0.127125  0.979764
			 0.107954  0.305195  0.946151
			 0.059567  0.536648  0.841701
			 0.045929  0.711106  0.701583
			 0.015727  0.558226  0.829540
			 0.029555  0.677847  0.734609
			 0.545435 -0.831384  0.106305
			-0.037117 -0.883676  0.466624
			-0.392100 -0.808752  0.438381
			 0.205442 -0.975870  0.073971
			 0.413760 -0.841239  0.348023
			 0.413364 -0.825552  0.384180
			 0.357431 -0.786225  0.504076
			 0.350113 -0.668818  0.655822
			 0.287554 -0.282028  0.915300
			 0.148606 -0.088778  0.984903
			 0.052936  0.600281  0.798035
			 0.021354  0.524717  0.851009
			 0.070584  0.738812  0.670204
			 0.098832  0.972145 -0.212523
			 0.109958  0.991254  0.072972
			 0.089653  0.919039  0.383835
			 0.149884  0.260708 -0.953712
			 0.089058  0.313532 -0.945392
			 0.106880  0.344094 -0.932832
			 0.022187  0.282535 -0.959001
			-0.017085  0.355379 -0.934566
			 0.000803  0.414500 -0.910049
			-0.019257  0.440235 -0.897676
			 0.064335  0.961757 -0.266241
			 0.062329  0.958322 -0.278809
			-0.011924  0.555137 -0.831674
			 0.008893  0.801369 -0.598104
			 0.286264 -0.939698 -0.187136
			-0.192600 -0.904320 -0.380935
			-0.278748 -0.940545 -0.194101
			 0.385064 -0.895526 -0.223067
			 0.306554 -0.915404 -0.260885
			-0.176508 -0.981594 -0.072931
			-0.389875 -0.920758  0.014217
			-0.304580 -0.952404  0.012543
			-0.241941 -0.970183  0.014481
			-0.660107  0.692874  0.290144
			-0.724046 -0.518335  0.455067
			-0.414916 -0.876098 -0.245553
			-0.006316 -0.982598  0.185639
			 0.134167 -0.046030 -0.989889
			 0.259262 -0.113558 -0.959108
			 0.369893 -0.601399 -0.708166
			 0.331026 -0.722138 -0.607403
			 0.156161 -0.024351 -0.987431
			 0.151230  0.223765 -0.962839
			 0.093217  0.580192 -0.809128
			 0.148297  0.495920 -0.855612
			 0.061401  0.305169 -0.950317
			 0.034869  0.297126 -0.954202
			 0.085753  0.496249 -0.863935
			 0.158072  0.074023  0.984649
			 0.178437  0.163590  0.970257
			 0.134993  0.288554  0.947900
			 0.109389  0.501988  0.857929
			 0.076446  0.557857  0.826409
			 0.062180  0.693845  0.717435
			 0.072460  0.685587  0.724375
			 0.036250  0.551595  0.833324
			 0.020264  0.507145  0.861622
			 0.034298  0.522003  0.852254
			-0.808473 -0.575814  0.121693
			-0.615336 -0.783843 -0.083376
			-0.323530 -0.911268 -0.254793
			 0.649214 -0.738464 -0.182188
			-0.067902 -0.955460  0.287204
			 0.380130 -0.784064  0.490657
			 0.437417 -0.690273  0.576359
			 0.437777 -0.520473  0.733116
			 0.431567 -0.100866  0.896424
			 0.289081  0.080026  0.953954
			 0.198234  0.053783  0.978678
			 0.032261  0.606955  0.794081
			 0.027682  0.533964  0.845054
			 0.034039  0.714885  0.698413
			 0.080057  0.994833  0.062439
			 0.066042  0.971674  0.226910
			 0.039498  0.876240  0.480254
			 0.106642  0.325421 -0.939536
			 0.021187  0.402004 -0.915393
			-0.031555  0.409028 -0.911976
			-0.043650  0.375442 -0.925817
			-0.052994  0.493829 -0.867943
			-0.043336  0.600316 -0.798588
			 0.000034  0.945096 -0.326792
			 0.022071  0.990830 -0.133299
			 0.065084  0.992649  0.102044
			-0.035528  0.825958 -0.562611
			 0.522417 -0.825194 -0.214793
			-0.521702  0.176906  0.834585
			-0.878883 -0.141815  0.455470
			 0.177883  0.331488  0.926538
			-0.145751 -0.985673 -0.084884
			-0.730753 -0.680492 -0.054130
			-0.997926 -0.020155  0.061128
			-0.771413 -0.635482  0.032923
			-0.857404 -0.454682  0.241087
			-0.966915 -0.227205  0.115988
			-0.973057 -0.230564 -0.000277
			-0.747167 -0.358927  0.559386
			-0.096631 -0.995301  0.006192
			-0.045030 -0.998953  0.008134
			 0.082639 -0.991620 -0.099302
			 0.000000 -1.000000  0.000000
			 0.130035 -0.988824  0.072921
			 0.239616  0.282448 -0.928874
			 0.317063 -0.015498 -0.948278
			 0.188985 -0.044866 -0.980954
			 0.219544 -0.316767 -0.922746
			 0.175574 -0.078886 -0.981301
			 0.271721 -0.362775 -0.891382
			 0.273372 -0.400209 -0.874700
			-0.025601 -0.877973 -0.478025
			 0.145809  0.293716 -0.944707
			 0.054205  0.446294 -0.893243
			 0.141561  0.449131 -0.882180
			 0.049390  0.482312 -0.874606
			-0.001775  0.434604 -0.900620
			-0.024319  0.293704 -0.955587
			-0.003866  0.504277 -0.863533
			 0.051146  0.548344 -0.834687
			 0.005218  0.585921 -0.810351
			 0.160930  0.171928  0.971876
			 0.135546  0.367013  0.920287
			 0.109864  0.556180  0.823768
			 0.076100  0.591094  0.803005
			 0.063497  0.675509  0.734613
			 0.074469  0.666139  0.742101
			 0.090608  0.558653  0.824438
			 0.102141  0.590270  0.800718
			 0.055978  0.544771  0.836714
			 0.025708  0.570092  0.821178
			-0.055822 -0.678911 -0.732096
			-0.021484 -0.977586 -0.209439
			-0.020552 -0.990400  0.136693
			 0.590061 -0.540075 -0.600122
			-0.299371  0.508078 -0.807609
			-0.785737 -0.618402 -0.014025
			 0.079473 -0.975958  0.202951
			-0.927771 -0.138586 -0.346461
			 0.099407 -0.964305  0.245426
			 0.684035 -0.725323  0.077474
			-0.158405  0.417654 -0.894691
			-0.227168 -0.737681 -0.635784
			 0.377930 -0.629878  0.678545
			 0.463653 -0.289825  0.837274
			 0.374410  0.068498  0.924730
			 0.231003  0.125255  0.964857
			 0.299929  0.129008  0.945198
			 0.137161  0.282476  0.949418
			 0.003992  0.600721  0.799449
			 0.019715  0.684816  0.728449
			 0.026821  0.952180  0.304358
			 0.017916  0.845055  0.534379
			-0.023107  0.482734 -0.875462
			-0.081478  0.404670 -0.910825
			-0.092117  0.547931 -0.831436
			-0.081193  0.651523 -0.754271
			-0.084231  0.849170 -0.521359
			-0.041376  0.957675 -0.284862
			-0.022828  0.991134 -0.130893
			 0.022897  0.985960  0.165404
			-0.153166 -0.987372 -0.040454
			 0.040972 -0.779730  0.624773
			 0.536620 -0.036470  0.843035
			-0.323323  0.217563  0.920939
			-0.929188 -0.324350  0.177220
			-0.739476 -0.099562  0.665779
			-0.685104 -0.234743  0.689586
			-0.406982  0.039043  0.912601
			-0.378539  0.736719  0.560316
			-0.552523  0.830956 -0.065038
			-0.871757 -0.488612 -0.036030
			-0.453545 -0.825030  0.337081
			 0.091468 -0.994286 -0.055041
			 0.231007 -0.969505  0.081833
			 0.169656 -0.972114 -0.161896
			 0.178260 -0.982835 -0.047526
			 0.406650 -0.910511  0.074878
			 0.394589 -0.917804  0.043981
			 0.133017  0.029446 -0.990676
			 0.342101 -0.048373 -0.938417
			 0.153898 -0.035407 -0.987452
			 0.121466 -0.231944 -0.965116
			 0.004908 -0.095458 -0.995421
			-0.086146 -0.189871  0.978023
			 0.237774 -0.971289 -0.007779
			 0.036858  0.283967 -0.958125
			 0.027066  0.437425 -0.898848
			 0.047968  0.515238 -0.855704
			 0.100037  0.516899 -0.850181
			-0.005417  0.360645 -0.932688
			-0.029555  0.475870 -0.879019
			 0.023588  0.559094 -0.828769
			 0.093739  0.567406 -0.818086
			 0.111251  0.398322  0.910474
			 0.062532  0.619039  0.782867
			 0.055552  0.641633  0.764998
			 0.057183  0.679668  0.731288
			 0.062101  0.646234  0.760609
			 0.078127  0.583854  0.808091
			 0.058237  0.589237  0.805859
			 0.086685  0.600213  0.795129
			 0.027964  0.602676  0.797496
			 0.020925  0.614041  0.788996
			 0.096108 -0.991398 -0.088846
			-0.393341 -0.857062 -0.332757
			-0.375833 -0.206102 -0.903478
			-0.906917 -0.188026 -0.377024
			 0.388515 -0.920040  0.050823
			 0.601498 -0.798626  0.019894
			 0.408506 -0.892620  0.190664
			 0.446425 -0.881268  0.155151
			-0.570630  0.812864  0.116767
			 0.510193 -0.836140 -0.201430
			 0.811810 -0.555764  0.179141
			-0.066201  0.146485  0.986995
			 0.491585 -0.866497 -0.086764
			 0.122615 -0.416610 -0.900779
			 0.019495  0.146016 -0.989090
			 0.053369 -0.791929  0.608277
			-0.549821 -0.835179  0.013165
			 0.014004 -0.995555 -0.093134
			-0.615862 -0.063926 -0.785256
			 0.220443 -0.100511  0.970208
			 0.273785 -0.961643 -0.016840
			 0.061015 -0.590490  0.804736
			 0.193670  0.051487  0.979715
			 0.199092  0.164746  0.966034
			 0.080205  0.063158  0.994775
			 0.058844  0.261550  0.963395
			-0.012213  0.365856  0.930591
			 0.010812  0.389402  0.921005
			 0.015280  0.624731  0.780690
			 0.017259  0.697318  0.716554
			 0.006300  0.930244  0.366887
			-0.002699  0.833095  0.553123
			-0.081335  0.509535 -0.856597
			-0.119513  0.589476 -0.798896
			-0.109224  0.701278 -0.704472
			-0.132547  0.892177 -0.431800
			-0.097484  0.961707 -0.256157
			-0.068738  0.991292 -0.112316
			-0.010602  0.988215  0.152705
			-0.289310  0.219768  0.931666
			-0.302615 -0.097602  0.948102
			-0.373729 -0.075170  0.924487
			-0.167372 -0.026302  0.985543
			-0.901821  0.317728  0.292863
			-0.854332 -0.070814  0.514881
			 0.147731 -0.138695 -0.979254
			-0.714873  0.202742 -0.669218
			 0.088251 -0.932781 -0.349473
			 0.279203 -0.954956 -0.100520
			 0.231713 -0.963973 -0.130632
			 0.372487 -0.920030 -0.121646
			 0.437723 -0.897992 -0.044818
			 0.563235 -0.826160  0.015032
			 0.568443 -0.822179  0.029880
			 0.560160 -0.828353 -0.007257
			 0.038594  0.094032 -0.994821
			 0.150064 -0.094403 -0.984159
			 0.085355  0.221349 -0.971452
			 0.226312 -0.553880 -0.801249
			 0.174403 -0.037477 -0.983961
			 0.187517 -0.076122 -0.979307
			 0.168383 -0.448394  0.877833
			-0.114849 -0.024180  0.993089
			-0.043497 -0.038712  0.998303
			 0.171097 -0.985220 -0.008256
			-0.008888  0.297649 -0.954634
			 0.135400  0.501314 -0.854606
			-0.005843  0.470666 -0.882292
			-0.036224  0.453835 -0.890349
			-0.008331  0.426183 -0.904598
			 0.107590  0.463107 -0.879748
			-0.068306  0.498222 -0.864355
			-0.123241  0.486484 -0.864954
			-0.157604  0.578700 -0.800167
			-0.014527  0.622131  0.782779
			 0.011172  0.656524  0.754222
			 0.030850  0.662547  0.748384
			 0.041714  0.631037  0.774630
			 0.053101  0.582862  0.810834
			 0.045490  0.617985  0.784873
			 0.069411  0.611488  0.788203
			 0.063436  0.639836  0.765889
			 0.031718  0.629369  0.776459
			 0.447334 -0.892905  0.051118
			 0.273822 -0.940996  0.198866
			-0.194412 -0.940927  0.277238
			-0.549158 -0.760385  0.346758
			 0.209070 -0.959521  0.188705
			-0.740873  0.632204 -0.226770
			 0.995037  0.034509  0.093332
			 0.264755 -0.096697  0.959455
			-0.980268 -0.144849  0.134515
			 0.021880 -0.020978 -0.999541
			-0.038784 -0.977103 -0.209200
			-0.221721 -0.877534  0.425176
			-0.536063 -0.808879  0.241559
			 0.054806  0.031090  0.998013
			 0.046990  0.034729  0.998292
			-0.383116 -0.509841  0.770250
			-0.301641 -0.908565  0.289002
			-0.104571  0.069048  0.992118
			-0.043094  0.411817  0.910247
			-0.071520  0.279711  0.957417