<?xml version="1.0"?>
<VTKFile type="PolyData" version="0.1" byte_order="LittleEndian" compressor="vtkZLibDataCompressor">
	<PolyData>
		<Piece NumberOfPoints="2572" NumberOfVerts="0" NumberOfLines="0" NumberOfStrips="0" NumberOfPolys="5128">
		<PointData Normals="Normals">
		<DataArray type="Float32" Name="Normals" NumberOfComponents="3" format="ascii">
			 0.926716 -0.371062  0.059258
			 0.818540 -0.410195 -0.402160
			 0.773484 -0.298174 -0.559298
			 0.875367 -0.478784  0.067064
			 0.795186 -0.299265  0.527370
			 0.918616 -0.316297  0.236857
			 0.999999 -0.000854  0.000928
			 0.999993 -0.001838 -0.003217
			 0.948072 -0.196506  0.250089
			 0.417106 -0.086974 -0.904687
			 0.932755 -0.256103 -0.253730
			 0.265799 -0.034120 -0.963425
			 0.965984 -0.258568 -0.004101
			 0.714108 -0.148152 -0.684179
			-0.063045 -0.130756 -0.989408
			 0.976636 -0.203659  0.068599
			 0.871333 -0.373147  0.318654
			 0.978293 -0.205671  0.025330
			 0.950731 -0.289104  0.111934
			 0.999993  0.000200 -0.003628
			 0.999999  0.000684  0.001262
			 0.923439  0.171861  0.343109
			 0.954781 -0.282575  0.092440
			 0.942136 -0.147001  0.301280
			 0.677404 -0.375139 -0.632767
			-0.024967 -0.008466 -0.999652
			-0.092038  0.246039 -0.964880
			 0.954072 -0.298460 -0.025846
			 0.842639 -0.527963  0.105904
			 0.785764  0.040875 -0.617175
			-0.149176 -0.120437 -0.981449
			-0.055777 -0.068397 -0.996098
			-0.589572  0.172281 -0.789129
			-0.081565 -0.079331 -0.993506
			-0.115248 -0.351579 -0.929037
			 0.930990 -0.332079  0.151596
			 0.966302 -0.246564  0.073938
			 0.745680 -0.583367  0.321938
			 0.708507 -0.640333  0.296634
			 0.740287 -0.626428  0.244057
			 0.999993  0.001932 -0.003203
			 0.923843  0.314106  0.218753
			 0.955242  0.072752  0.286740
			 0.954663  0.258700  0.147283
			 0.820112  0.434154  0.372728
			 0.977251 -0.201568  0.065959
			 0.989178 -0.104450  0.103035
			 0.741568 -0.670738  0.013689
			 0.084461  0.071355 -0.993869
			 0.276153 -0.243082 -0.929866
			 0.685822 -0.646798 -0.333617
			-0.100458  0.082559 -0.991510
			-0.083580  0.042326 -0.995602
			-0.065916  0.526504 -0.847614
			 0.050375  0.147830 -0.987729
			 0.711935 -0.638292  0.292800
			 0.732393 -0.675217  0.087651
			 0.731520 -0.676432  0.085550
			 0.711780  0.158729 -0.684233
			 0.057138  0.094118 -0.993920
			-0.303570 -0.172372 -0.937087
			-0.200348 -0.101256 -0.974478
			-0.140709  0.132519 -0.981142
			-0.174890  0.334792 -0.925920
			 0.422349 -0.014916 -0.906311
			 0.834966 -0.499852  0.230175
			 0.940609 -0.300991  0.157032
			 0.575221 -0.709483  0.407130
			 0.688337 -0.668470  0.281675
			 0.647997 -0.706419  0.284730
			 0.849828  0.475158 -0.228071
			 0.829629  0.533820  0.163561
			 0.950163  0.275578  0.145761
			 0.994493  0.072237  0.075937
			 0.994501  0.104730  0.000346
			 0.993736  0.108575 -0.026461
			 0.967900 -0.210984  0.136585
			 0.986485 -0.119592  0.112007
			-0.065054  0.162118 -0.984625
			 0.553896 -0.709032 -0.436432
			-0.005299 -0.038936 -0.999228
			-0.080020  0.088841 -0.992826
			-0.075433  0.004967 -0.997139
			-0.209746  0.304668 -0.929077
			 0.555266 -0.763040  0.330832
			 0.551499 -0.730476  0.402807
			 0.581027 -0.800239  0.148409
			 0.660203 -0.733277  0.162592
			 0.669869 -0.736072  0.097334
			 0.268253  0.225668 -0.936544
			-0.115777  0.040275 -0.992458
			-0.138679 -0.202320 -0.969451
			-0.104920 -0.596513 -0.795716
			-0.115801 -0.181321 -0.976582
			-0.166258 -0.009118 -0.986040
			-0.111877 -0.280588 -0.953286
			-0.217147  0.118912 -0.968869
			 0.779660 -0.577323  0.242546
			 0.842242 -0.495788  0.211713
			 0.949244 -0.276819  0.149359
			 0.497158 -0.780623  0.378763
			 0.543206 -0.769333  0.336235
			 0.642907 -0.709758  0.287947
			 0.687863  0.619238 -0.378666
			 0.977409  0.211168 -0.008974
			 0.875679  0.276184 -0.396118
			 0.984600  0.174777  0.004077
			 0.995888  0.018272  0.088730
			 0.986189  0.136651  0.093581
			 0.978456  0.196982  0.061818
			 0.959972  0.269717  0.075536
			 0.963295 -0.221918  0.151047
			 0.979969 -0.139328  0.142301
			-0.181382  0.061614 -0.981481
			 0.056907 -0.204430 -0.977226
			 0.393315 -0.780402 -0.486083
			 0.440559 -0.893108  0.090912
			 0.687625 -0.716195  0.119316
			-0.174149  0.064384 -0.982612
			-0.250937  0.017434 -0.967847
			-0.233315  0.239011 -0.942570
			-0.153181  0.043876 -0.987224
			-0.256415  0.250013 -0.933673
			 0.510861 -0.840303  0.181418
			 0.517639 -0.747355  0.416546
			 0.450327 -0.716848  0.532292
			 0.351663 -0.825076  0.442247
			 0.396510  0.104292 -0.912087
			-0.069573  0.090394 -0.993473
			-0.141802  0.005048 -0.989882
			-0.155771 -0.111085 -0.981527
			-0.201933 -0.019246 -0.979210
			-0.171431 -0.121735 -0.977646
			-0.107767 -0.184171 -0.976968
			-0.171881 -0.172080 -0.969972
			 0.838980 -0.512887  0.181824
			 0.384411 -0.820904  0.422309
			 0.277136 -0.867487  0.413114
			 0.362136 -0.860430  0.358494
			 0.511120 -0.816218  0.269339
			 0.666753 -0.712668  0.218049
			 0.938001  0.346059 -0.019919
			 0.911153  0.252937 -0.325305
			 0.959573  0.280553  0.022595
			 0.991361  0.005260  0.131059
			 0.980852  0.151972  0.121793
			 0.963088  0.239256  0.123363
			 0.943137  0.314875  0.106520
			 0.963938  0.237410  0.120251
			 0.968024 -0.219922  0.120679
			 0.982039 -0.148151  0.116841
			-0.306662 -0.002278 -0.951816
			-0.182546 -0.031401 -0.982696
			-0.237850 -0.097511 -0.966395
			-0.168485 -0.110949 -0.979440
			-0.057766 -0.394262 -0.917181
			 0.688704 -0.715395  0.117883
			-0.017207 -0.854002 -0.519985
			 0.216713 -0.976229 -0.003579
			 0.448139 -0.887952  0.103502
			 0.532836 -0.838731  0.112321
			-0.345147 -0.096753 -0.933548
			-0.265873  0.027618 -0.963612
			-0.293511  0.151968 -0.943799
			-0.197358  0.235164 -0.951708
			-0.102705 -0.163151 -0.981241
			-0.166032 -0.114446 -0.979457
			 0.399485 -0.830682  0.387789
			 0.429738 -0.705428  0.563646
			 0.315397 -0.805453  0.501767
			 0.287485 -0.782348  0.552526
			 0.404590  0.301134 -0.863496
			-0.066087  0.106408 -0.992124
			-0.125538  0.156990 -0.979589
			-0.249234  0.036998 -0.967736
			-0.149634  0.035504 -0.988104
			-0.207434  0.061589 -0.976308
			-0.162845 -0.002338 -0.986649
			-0.096118 -0.123688 -0.987655
			-0.103550 -0.008680 -0.994586
			 0.682508 -0.712177  0.164276
			 0.975065 -0.212554  0.063792
			 0.654631 -0.745463  0.125472
			 0.834773 -0.541222  0.101156
			 0.248815 -0.846698  0.470312
			 0.227220 -0.921966  0.313607
			 0.040076 -0.871125  0.489424
			 0.035500 -0.927640  0.371785
			 0.356996 -0.893708  0.271735
			 0.483283 -0.854700  0.189542
			 0.622912  0.690211 -0.368225
			 0.762597  0.639025 -0.100465
			 0.630796  0.733235 -0.253896
			 0.782092  0.591138  0.197200
			 0.941975  0.326574 -0.077673
			 0.994493 -0.010613  0.104269
			 0.986719  0.138958  0.084116
			 0.966603  0.230909  0.111178
			 0.947329  0.301923  0.106816
			 0.861302  0.463374  0.208429
			 0.985619 -0.151641  0.074559
			-0.415548 -0.126726 -0.900700
			-0.239394 -0.027338 -0.970538
			-0.710864 -0.233809 -0.663330
			-0.442994 -0.123676 -0.887953
			-0.380662 -0.422619 -0.822489
			-0.248991 -0.885983 -0.391200
			 0.265755 -0.934471  0.236935
			-0.013343 -0.988632  0.149760
			 0.429757 -0.876571  0.216637
			-0.505204 -0.238582 -0.829366
			-0.383303 -0.241486 -0.891495
			-0.287948 -0.094927 -0.952929
			-0.360166 -0.252256 -0.898135
			-0.197890  0.149789 -0.968712
			-0.138766  0.179487 -0.973924
			-0.169260 -0.095255 -0.980958
			-0.096069 -0.278940 -0.955491
			-0.069276 -0.135066 -0.988412
			 0.216712 -0.834002  0.507422
			 0.169865 -0.802113  0.572504
			 0.100174 -0.771999  0.627680
			 0.111861 -0.811520  0.573518
			 0.151750  0.632535 -0.759520
			-0.245577  0.426477 -0.870522
			-0.207919  0.476018 -0.854504
			-0.257692  0.234951 -0.937226
			-0.250451  0.227749 -0.940960
			-0.159833  0.125456 -0.979140
			-0.185929  0.238995 -0.953054
			-0.125619  0.126370 -0.983997
			-0.075442 -0.002320 -0.997147
			-0.096350  0.230175 -0.968368
			 0.557988 -0.825872  0.081150
			 0.855575 -0.514226  0.059690
			 0.981313 -0.187972  0.041126
			 0.676560 -0.733148  0.068999
			 0.255178 -0.930573  0.262523
			-0.029493 -0.962384  0.270088
			 0.103681 -0.972817  0.207069
			-0.187548 -0.840715  0.507960
			-0.217353 -0.876366  0.429814
			-0.027284 -0.789591  0.613026
			-0.170677 -0.768327  0.616882
			 0.231673 -0.950217  0.208362
			 0.207247 -0.974268  0.088601
			 0.242266  0.917542 -0.315316
			 0.434651  0.868324 -0.238940
			 0.485939  0.809989 -0.328301
			 0.474998  0.862629 -0.173920
			 0.729930  0.562455  0.388390
			 0.508257  0.813890  0.281528
			 0.351330  0.933357 -0.073565
			 0.997211 -0.026437  0.069790
			 0.991153  0.120378  0.055906
			 0.975625  0.210631  0.061566
			 0.959260  0.269833  0.083734
			 0.819758  0.556470  0.135417
			 0.688416  0.700533  0.187982
			 0.987834 -0.146024  0.053478
			-0.460640 -0.409509 -0.787473
			-0.654440 -0.326159 -0.682150
			-0.647485 -0.661699 -0.378045
			-0.813736 -0.437693 -0.382439
			-0.895772 -0.432856 -0.101134
			-0.946386 -0.278213 -0.164166
			-0.399609 -0.665524 -0.630389
			-0.570189 -0.805453 -0.161651
			 0.079460 -0.883409  0.461817
			-0.324230 -0.863134  0.387137
			-0.475364 -0.435926 -0.764197
			-0.362700 -0.376631 -0.852407
			-0.232217 -0.040886 -0.971804
			-0.125480  0.095285 -0.987510
			-0.078861 -0.209758 -0.974568
			-0.088206 -0.139590 -0.986273
			-0.087516 -0.254238 -0.963174
			-0.065494 -0.340391 -0.938000
			-0.088140  0.021859 -0.995868
			 0.030593 -0.767088  0.640812
			 0.046045 -0.749220  0.660719
			-0.039239 -0.746585  0.664131
			-0.053514  0.628928 -0.775619
			 0.268192  0.880579 -0.390710
			-0.216373  0.468645 -0.856478
			-0.187260  0.379339 -0.906110
			-0.256974  0.522127 -0.813233
			-0.193437  0.514294 -0.835514
			-0.118698  0.314497 -0.941808
			-0.122907  0.647454 -0.752128
			-0.149061  0.450804 -0.880089
			 0.293343 -0.955846 -0.017566
			 0.547301 -0.836936 -0.000133
			 0.874229 -0.484094  0.037108
			 0.984897 -0.171671  0.022510
			 0.688912 -0.724623  0.017944
			-0.021088 -0.987185  0.158182
			-0.254922 -0.908300  0.331672
			-0.146156 -0.965308  0.216379
			-0.346349 -0.745312  0.569696
			-0.356388 -0.849646  0.388702
			-0.298674 -0.675721  0.673940
			-0.317139 -0.596292  0.737468
			-0.023007 -0.998647  0.046637
			 0.018961 -0.987751 -0.154884
			 0.237884  0.963036 -0.126384
			 0.327766  0.937707 -0.115213
			 0.746464  0.627424  0.221656
			 0.584867  0.761414  0.279604
			 0.480873  0.821525  0.306363
			 0.302220  0.943765  0.134054
			 0.127992  0.991755  0.006300
			 0.119324  0.991234 -0.056720
			 0.097612  0.986545 -0.131154
			 0.997696 -0.029215  0.061230
			 0.992720  0.107776  0.053764
			 0.981947  0.185570  0.036666
			 0.970999  0.236749  0.033331
			 0.848221  0.519978  0.100712
			 0.704269  0.694408  0.147658
			 0.990302 -0.134072  0.036420
			-0.617873 -0.687599 -0.381367
			-0.792576 -0.609575 -0.015532
			-0.609275 -0.792024  0.038486
			-0.688923 -0.724833  0.001678
			-0.901747 -0.387581  0.191400
			-0.436698 -0.668125  0.602415
			-0.461720 -0.762445 -0.453312
			-0.449177 -0.668830 -0.592374
			-0.207531 -0.296960 -0.932065
			-0.439884 -0.704465 -0.556984
			-0.064465 -0.068355 -0.995576
			 0.005472 -0.142814 -0.989734
			-0.077479 -0.344420 -0.935613
			-0.056376 -0.259932 -0.963980
			-0.129438 -0.150609 -0.980083
			-0.098032  0.044232 -0.994200
			-0.342442 -0.661273  0.667422
			-0.363335 -0.643836  0.673396
			-0.113019  0.778225 -0.617732
			 0.100762  0.943938 -0.314369
			-0.255074  0.743957 -0.617629
			-0.253157  0.763096 -0.594640
			-0.336489  0.788530 -0.514778
			-0.337300  0.797945 -0.499512
			-0.243565  0.756687 -0.606713
			-0.204600  0.742143 -0.638250
			-0.134336  0.702697 -0.698692
			-0.107491  0.279584 -0.954085
			-0.076774  0.619726 -0.781054
			-0.041971  0.530687 -0.846528
			 0.301451 -0.947823 -0.103723
			 0.581704 -0.810443 -0.069304
			 0.876105 -0.481425 -0.025867
			 0.987817 -0.155602 -0.002562
			 0.683203 -0.726639 -0.072315
			-0.234459 -0.971340  0.039097
			-0.280344 -0.935056  0.216976
			-0.339639 -0.904973  0.256260
			-0.365951 -0.753095  0.546743
			-0.435406 -0.632766  0.640335
			-0.338495 -0.857458  0.387540
			-0.664379 -0.618662  0.419354
			 0.225487 -0.963073 -0.147128
			 0.071096 -0.980061 -0.185541
			-0.268506 -0.940852 -0.206646
			-0.221219 -0.933469 -0.282307
			-0.295774 -0.898902 -0.323255
			 0.676621  0.725792  0.124135
			 0.531170  0.837153  0.130515
			 0.293824  0.946471  0.133642
			 0.002149  0.998174  0.060370
			 0.008061  0.999730 -0.021798
			 0.005994  0.994868 -0.101006
			-0.007967  0.985009 -0.172318
			 0.997709 -0.018968  0.064934
			 0.991380  0.100556  0.083985
			 0.985026  0.168516  0.036408
			 0.977966  0.208008  0.017739
			 0.866004  0.499724  0.017682
			 0.734851  0.675856  0.056685
			 0.994646 -0.101062  0.021578
			-0.564148 -0.818492 -0.108665
			-0.557291 -0.718535  0.416094
			-0.496494 -0.847077  0.189616
			-0.399437 -0.912671 -0.086504
			-0.357119 -0.840055 -0.408380
			-0.330005 -0.708135 -0.624212
			-0.033590 -0.268844 -0.962598
			-0.177067 -0.659468 -0.730581
			 0.056810 -0.181874 -0.981679
			 0.035970 -0.181628 -0.982709
			-0.083206 -0.123132 -0.988896
			-0.015392 -0.072984 -0.997214
			-0.073275  0.297245 -0.951985
			-0.047741  0.247439 -0.967727
			-0.030733  0.088329 -0.995617
			-0.206473  0.940256 -0.270716
			-0.439250  0.852275 -0.284053
			-0.355002  0.917874 -0.177429
			-0.261834  0.793834 -0.548882
			-0.208366  0.956669 -0.203389
			-0.204424  0.875912 -0.437023
			-0.094461  0.792975 -0.601887
			 0.006232  0.762188 -0.647326
			-0.022839  0.484008 -0.874765
			 0.025378  0.696881 -0.716737
			 0.343878 -0.919942 -0.188294
			 0.528867 -0.834547 -0.154373
			 0.694914 -0.709581 -0.116574
			 0.875179 -0.479191 -0.066620
			 0.990094 -0.140138 -0.008713
			 0.657350 -0.749623 -0.077174
			-0.336661 -0.939301  0.066129
			-0.364233 -0.912247 -0.187455
			-0.309149 -0.922725  0.230228
			-0.421789 -0.702006  0.573831
			-0.342820 -0.799398  0.493393
			-0.293095 -0.897993  0.328182
			 0.122288 -0.974177 -0.189802
			-0.117308 -0.970255 -0.211765
			-0.390253 -0.861037 -0.326064
			-0.345799 -0.864062 -0.365814
			 0.667461  0.744265  0.023797
			 0.378605  0.921239  0.089315
			-0.002152  0.989211  0.146484
			-0.259172  0.965718  0.014765
			-0.301427  0.949019  0.092220
			-0.247429  0.965860 -0.076774
			 0.997917  0.021346  0.060881
			 0.994316  0.080527  0.069649
			 0.989895  0.134853  0.043852
			 0.918457  0.391649  0.055216
			 0.854866  0.517071  0.042914
			 0.732330  0.680946  0.002428
			 0.996986 -0.077406  0.005227
			-0.396029 -0.788631  0.470343
			-0.377684 -0.900041  0.217445
			-0.317928 -0.942426  0.103707
			-0.208439 -0.977994 -0.008983
			-0.233154 -0.839807 -0.490268
			-0.149597 -0.862892 -0.482739
			-0.002952 -0.405859 -0.913931
			 0.047990 -0.236460 -0.970455
			-0.063748 -0.626535 -0.776782
			-0.097697 -0.756109 -0.647113
			 0.049317 -0.119528 -0.991605
			 0.021292 -0.035970 -0.999126
			 0.010308  0.088032 -0.996064
			 0.011625  0.443115 -0.896389
			 0.005986  0.260232 -0.965527
			-0.382162  0.922932 -0.046355
			-0.304651  0.950594  0.059648
			-0.159340  0.984723  0.070222
			-0.055040  0.941810 -0.331609
			 0.061903  0.902374 -0.426485
			 0.031349  0.626046 -0.779155
			 0.062369  0.779358 -0.623467
			 0.472242 -0.849376 -0.235688
			 0.263022 -0.926041 -0.270680
			 0.606028 -0.782920 -0.140591
			 0.712303 -0.689617 -0.130584
			 0.881900 -0.468450 -0.052970
			 0.991877 -0.126745 -0.010732
			 0.612285 -0.779691 -0.131106
			-0.319150 -0.941177 -0.111038
			-0.268100 -0.944141  0.191623
			-0.283457 -0.958554  0.028762
			-0.425428 -0.859845 -0.282271
			-0.363061 -0.919914 -0.148137
			-0.293130 -0.860768  0.416117
			-0.178512 -0.944831  0.274641
			-0.180468 -0.960698  0.210929
			 0.062594 -0.979186 -0.193073
			-0.103827 -0.979785 -0.171001
			-0.520005 -0.839097 -0.159723
			-0.480615 -0.787443 -0.385931
			-0.544661 -0.767342 -0.338423
			 0.659045  0.751672  0.025461
			 0.341554  0.939572  0.023355
			-0.023333  0.993650  0.110069
			-0.314412  0.931817  0.181278
			-0.397196  0.914411  0.078025
			-0.478485  0.867499  0.136007
			 0.998893  0.043659  0.017488
			 0.998591  0.052928  0.003694
			 0.997175  0.072597  0.019265
			 0.913186  0.404927 -0.046109
			 0.759676  0.645791  0.076460
			 0.793711  0.607723 -0.026385
			 0.998062 -0.060514  0.014500
			-0.328914 -0.862708  0.384124
			-0.159372 -0.966359  0.201867
			-0.101318 -0.992946 -0.061577
			-0.077571 -0.995540  0.053688
			-0.092939 -0.890844 -0.444702
			-0.046235 -0.982998 -0.177698
			 0.014359 -0.497688 -0.867237
			 0.061570 -0.257834 -0.964225
			 0.065403 -0.102401 -0.992591
			-0.003231 -0.681460 -0.731848
			-0.038625 -0.774477 -0.631422
			 0.059636 -0.008147 -0.998187
			 0.047662  0.074322 -0.996095
			 0.070051  0.224735 -0.971899
			 0.073584  0.415176 -0.906760
			 0.095874  0.551869 -0.828402
			-0.324772  0.925486  0.194935
			-0.108050  0.968270  0.225342
			 0.013237  0.998888 -0.045251
			 0.110654  0.925088 -0.363273
			 0.108779  0.986355 -0.123579
			 0.085459  0.715362 -0.693508
			 0.124412  0.892142 -0.434286
			 0.614242 -0.781289 -0.110883
			 0.288440 -0.936214 -0.200761
			 0.549122 -0.828792 -0.107559
			 0.077231 -0.982728 -0.168167
			 0.691160 -0.719609 -0.066786
			 0.920411 -0.386052 -0.061707
			 0.782145 -0.597249 -0.177603
			 0.994861 -0.101208 -0.003004
			-0.324403 -0.940922 -0.097100
			-0.154977 -0.981044  0.116340
			-0.219974 -0.975455  0.009917
			-0.538793 -0.831696 -0.134107
			-0.386254 -0.918934 -0.079802
			-0.216102 -0.888450  0.404917
			-0.170266 -0.919649  0.353914
			-0.028082 -0.961586  0.273063
			-0.052137 -0.977923  0.202356
			-0.104707 -0.969649 -0.220948
			-0.560521 -0.827239 -0.038625
			-0.755306 -0.653381 -0.051051
			-0.878319 -0.458492  0.135430
			 0.702037  0.711684  0.025505
			 0.321310  0.946867  0.014216
			-0.064421  0.996020  0.061597
			-0.277401  0.941055  0.193556
			-0.392655  0.868371  0.302909
			-0.491552  0.852400  0.178301
			-0.371628  0.903830  0.212094
			 0.998667  0.039449  0.033290
			 0.999749  0.020689  0.008565
			 0.998913  0.040231 -0.023553
			 0.992463  0.121525 -0.015780
			 0.858649  0.499439 -0.115254
			 0.769822  0.625109 -0.128889
			 0.738908  0.662076 -0.125186
			 0.833938  0.537414 -0.125431
			 0.999310 -0.022171  0.029803
			-0.050336 -0.954355  0.294401
			 0.003901 -0.985401  0.170204
			 0.025581 -0.999670 -0.002500
			 0.059630 -0.995987  0.066739
			-0.001307 -0.883828 -0.467810
			-0.006584 -0.961178 -0.275851
			 0.029025 -0.995035 -0.095201
			 0.072886 -0.518099 -0.852209
			 0.075129 -0.330610 -0.940772
			 0.085605 -0.117650 -0.989359
			 0.090464 -0.180952 -0.979322
			 0.086194 -0.010170 -0.996226
			 0.088485 -0.658151 -0.747668
			 0.061334 -0.776453 -0.627184
			 0.089310  0.076293 -0.993078
			 0.100977  0.228328 -0.968334
			 0.100021  0.148301 -0.983871
			 0.114791  0.363984 -0.924304
			 0.139540  0.603809 -0.784821
			 0.112120  0.672192 -0.731838
			 0.113484  0.661003 -0.741753
			-0.283971  0.927066  0.244763
			 0.088168  0.990714  0.103503
			 0.084350  0.980209  0.179097
			-0.096586  0.960558  0.260766
			 0.146216  0.977901 -0.149431
			 0.125171  0.991617  0.032058
			 0.134290  0.800969 -0.583450
			 0.181114  0.972106 -0.149021
			 0.182343  0.953174 -0.241269
			 0.177045  0.909385 -0.376397
			 0.624115 -0.781038 -0.021452
			 0.354400 -0.931436  0.082624
			 0.064654 -0.996794 -0.047128
			 0.516412 -0.855166  0.044827
			-0.231956 -0.968625  0.089234
			 0.653663 -0.751443 -0.089766
			 0.912291 -0.406005 -0.053714
			 0.996910 -0.077547  0.012514
			-0.324315 -0.945791  0.017292
			-0.047221 -0.988292  0.145086
			-0.072302 -0.994508  0.075667
			-0.111795 -0.992567  0.048082
			-0.236225 -0.960036  0.150097
			-0.654761 -0.739900  0.154390
			-0.458338 -0.886068  0.069346
			 0.063666 -0.964635  0.255785
			 0.051039 -0.972764  0.226108
			-0.785669 -0.475305  0.395991
			-0.771756 -0.562207  0.297180
			 0.672599  0.739085  0.036926
			 0.306598  0.951802 -0.008414
			-0.101518  0.993471  0.052060
			-0.290662  0.952016  0.095818
			-0.405575  0.873437  0.269476
			-0.418305  0.900334  0.120085
			-0.383051  0.901745  0.200317
			 0.998303  0.035997  0.045769
			 0.999613 -0.008192  0.026590
			 0.999587  0.025093 -0.014004
			 0.993374  0.107451 -0.040767
			 0.834258  0.523165 -0.174103
			 0.711840  0.668390 -0.215728
			 0.541863  0.840433 -0.007522
			 0.757431  0.643926 -0.107972
			 0.999552 -0.004314  0.029611
			 0.107784 -0.972484  0.206535
			 0.066778 -0.997681  0.013196
			 0.101048 -0.984631  0.142449
			 0.070087 -0.883421 -0.463308
			 0.040581 -0.964648 -0.260400
			 0.011600 -0.993186 -0.115961
			 0.011393 -0.999827 -0.014705
			 0.145894 -0.545633 -0.825227
			 0.086628 -0.270342 -0.958859
			 0.122872 -0.276948 -0.952997
			 0.084805 -0.092661 -0.992080
			 0.091667  0.000176 -0.995790
			 0.126616 -0.747846 -0.651686
			 0.096402  0.090994 -0.991174
			 0.105422  0.236885 -0.965801
			 0.117936  0.198264 -0.973028
			 0.128000  0.351079 -0.927556
			 0.125774  0.282545 -0.950973
			 0.137707  0.486071 -0.863002
			 0.163775  0.646354 -0.745255
			 0.164467  0.858479 -0.485763
			 0.166715  0.822026 -0.544499
			-0.102291  0.976843  0.187919
			 0.156986  0.975945  0.151283
			 0.023814  0.999706  0.004547
			 0.144121  0.977261  0.155533
			 0.155738  0.983922  0.087420
			 0.171560  0.984858  0.024925
			 0.203068  0.979138  0.007176
			 0.200311  0.979070 -0.036034
			 0.177370  0.958285 -0.224119
			 0.574190 -0.818474  0.020130
			 0.321244 -0.934810  0.151436
			 0.037304 -0.970566  0.237929
			 0.443852 -0.893136  0.072818
			-0.704010 -0.542126  0.458770
			-0.430301 -0.825293  0.365694
			 0.617003 -0.785827  0.042239
			 0.846996 -0.531040 -0.024406
			 0.997130 -0.074939  0.010746
			 0.997704 -0.049764  0.045942
			-0.387932 -0.909619  0.148667
			 0.019086 -0.968822  0.247023
			-0.145365 -0.976444  0.159455
			-0.039234 -0.958818  0.281299
			-0.209508 -0.930688  0.299876
			-0.311360 -0.838754  0.446706
			-0.548593 -0.800668  0.240784
			-0.456551 -0.845979  0.275464
			-0.565500 -0.761731  0.316191
			 0.114005 -0.944391  0.308429
			-0.861520 -0.346864  0.370768
			-0.644880 -0.437416  0.626735
			-0.734726 -0.373607  0.566212
			-0.625305 -0.539956  0.563419
			 0.154905  0.971920  0.177131
			-0.066390  0.985783  0.154354
			-0.196397  0.976141  0.092608
			-0.297010  0.952205  0.071349
			-0.412243  0.908401  0.069744
			-0.454076  0.883633  0.114053
			-0.114918  0.984983  0.128853
			-0.313652  0.939237  0.139487
			 0.999424  0.025745  0.022102
			 0.999780 -0.013031  0.016458
			 0.999940  0.003538  0.010337
			 0.995753  0.088511 -0.025345
			 0.877626  0.457503 -0.143048
			 0.466757  0.884367  0.005738
			 0.177869  0.968872  0.172189
			 0.648624  0.759099 -0.055287
			 0.997825 -0.003923  0.065802
			 0.127954 -0.947800  0.292066
			 0.037278 -0.997095  0.066426
			 0.093895 -0.963908  0.249130
			 0.142651 -0.903168 -0.404892
			 0.103641 -0.967919 -0.228894
			 0.080045 -0.994078 -0.073495
			 0.057054 -0.998096 -0.023438
			 0.049984 -0.998736  0.005262
			 0.185481 -0.447758 -0.874705
			 0.209213 -0.725653 -0.655482
			 0.143573 -0.509562 -0.848371
			 0.119774 -0.089416 -0.988766
			 0.184845 -0.243350 -0.952162
			 0.160109 -0.100220 -0.981998
			 0.115276 -0.003879 -0.993326
			 0.115296  0.068874 -0.990941
			 0.154872  0.196779 -0.968139
			 0.150270  0.339213 -0.928630
			 0.136920  0.350184 -0.926620
			 0.155640  0.487643 -0.859058
			 0.170585  0.643549 -0.746154
			 0.167489  0.737385 -0.654378
			 0.200750  0.947504 -0.248869
			 0.186370  0.876888 -0.443096
			 0.192172  0.976886  0.093613
			 0.160725  0.978113  0.132142
			 0.204281  0.971995  0.116167
			 0.204973  0.968559  0.140997
			 0.212077  0.967667  0.136542
			 0.212543  0.973119  0.088680
			 0.210044  0.976294  0.052267
			 0.217342  0.975523 -0.033431
			 0.501733 -0.791800  0.348306
			 0.296556 -0.911709  0.284326
			 0.002185 -0.898914  0.438119
			-0.546795 -0.568637  0.614547
			 0.438179 -0.818402  0.371777
			 0.581852 -0.707059  0.401890
			 0.817256 -0.328414  0.473537
			 0.996476 -0.013933  0.082711
			 0.069795 -0.952580  0.296176
			 0.021849 -0.937021  0.348590
			-0.143683 -0.908312  0.392841
			-0.069336 -0.854695  0.514479
			-0.496553 -0.678983  0.540756
			-0.379019 -0.566616  0.731636
			-0.197653 -0.759226  0.620089
			-0.270410 -0.635473  0.723224
			 0.142038 -0.920669  0.363585
			 0.141153 -0.938074  0.316374
			-0.745439 -0.345904  0.569799
			-0.734635 -0.164941  0.658108
			-0.749314 -0.387875  0.536733
			-0.705531 -0.249059  0.663472
			-0.531070 -0.337726  0.777114
			-0.591143 -0.240936  0.769740
			-0.714419 -0.143871  0.684767
			-0.602228 -0.126763  0.788196
			 0.107879  0.985211  0.133120
			-0.411100  0.892194  0.187048
			-0.181339  0.952355  0.245228
			-0.414742  0.903904  0.104625
			-0.501229  0.861397  0.082246
			-0.352818  0.927222  0.125614
			-0.089741  0.984339  0.151732
			 0.998030  0.013231  0.061320
			 0.997517  0.007024  0.070076
			 0.999301  0.007210  0.036669
			 0.996898  0.078590 -0.004239
			 0.993627  0.112164 -0.011173
			 0.839353  0.542830 -0.028668
			 0.572983  0.819401  0.016522
			 0.365641  0.929941  0.038935
			 0.994272  0.005960  0.106715
			 0.108342 -0.913269  0.392686
			 0.071217 -0.988633  0.132411
			 0.101094 -0.937294  0.333557
			 0.168854 -0.898609 -0.404956
			 0.117582 -0.982701 -0.143085
			 0.123112 -0.982211 -0.141794
			 0.119437 -0.992501 -0.026013
			 0.101589 -0.994816 -0.004509
			 0.075634 -0.996929  0.020320
			 0.217392 -0.451900 -0.865174
			 0.243742 -0.507026 -0.826749
			 0.257625 -0.671086 -0.695178
			 0.258497 -0.805805 -0.532783
			 0.176602 -0.952920 -0.246486
			 0.139952 -0.931298 -0.336299
			 0.161011 -0.000994 -0.986952
			 0.203200 -0.196911 -0.959133
			 0.217804 -0.358030 -0.907951
			 0.201000 -0.086199 -0.975791
			 0.195922 -0.007745 -0.980589
			 0.157893  0.067001 -0.985181
			 0.197884  0.180120 -0.963534
			 0.191361  0.330340 -0.924260
			 0.189790  0.432534 -0.881416
			 0.193553  0.569728 -0.798716
			 0.194881  0.686094 -0.700926
			 0.202286  0.803770 -0.559495
			 0.213040  0.975930 -0.046627
			 0.192298  0.958861 -0.208824
			 0.199182  0.943888 -0.263444
			 0.213384  0.914470 -0.343819
			 0.162588  0.979602  0.118094
			 0.209924  0.967004  0.144346
			 0.214242  0.969993  0.114953
			 0.218986  0.963522  0.153855
			 0.192231  0.966545  0.169817
			 0.157572  0.951595  0.263892
			 0.202663  0.965606  0.162887
			 0.218723  0.968716  0.117258
			 0.224800  0.972622  0.058919
			 0.335945 -0.399409  0.853003
			 0.200755 -0.588654  0.783060
			-0.150380 -0.455325  0.877533
			-0.550608 -0.209865  0.807953
			 0.634996  0.036044  0.771674
			 0.287328 -0.114437  0.950971
			 0.139064  0.154490  0.978159
			 0.696626  0.136947  0.704243
			 0.097947 -0.917410  0.385700
			 0.043412 -0.856049  0.515068
			-0.030372 -0.721845  0.691388
			-0.127137 -0.650058  0.749173
			-0.482884 -0.495957  0.721699
			-0.447304 -0.228044  0.864821
			-0.340329 -0.194910  0.919884
			-0.248982 -0.342480  0.905934
			-0.223910 -0.558362  0.798809
			-0.688023  0.087593  0.720383
			-0.717330 -0.118662  0.686554
			-0.713035 -0.043714  0.699764
			-0.559141  0.064491  0.826561
			-0.434718  0.018699  0.900373
			-0.596331  0.264723  0.757833
			-0.521074  0.226268  0.822973
			 0.001788  0.981353  0.192207
			-0.454264  0.811211  0.368212
			-0.520047  0.843438  0.134772
			-0.510144  0.832237  0.217106
			-0.274074  0.870100  0.409646
			-0.389257  0.911769  0.130981
			-0.053520  0.988342  0.142535
			 0.788552  0.039745  0.613682
			 0.822764  0.011459  0.568267
			 0.995701  0.022935  0.089742
			 0.996874  0.068090  0.040079
			 0.994599  0.100797  0.024735
			 0.818225  0.566664  0.096952
			 0.296199  0.933491  0.202140
			 0.229983  0.960932  0.154004
			 0.097197 -0.858423  0.503649
			 0.098240 -0.800594  0.591100
			 0.107016 -0.842664  0.527697
			 0.071423 -0.987783  0.138504
			 0.109726 -0.983214  0.145776
			 0.150966 -0.930897  0.332625
			 0.131374 -0.860619  0.492013
			 0.092367 -0.995343 -0.027579
			 0.158526 -0.984216 -0.078661
			 0.128289 -0.991658  0.012507
			 0.094900 -0.995463  0.006889
			 0.090922 -0.995603  0.022536
			 0.259909 -0.578055 -0.773498
			 0.258278 -0.860158 -0.439796
			 0.214254 -0.876723 -0.430641
			 0.190192 -0.966720 -0.171111
			 0.147481 -0.988487 -0.033806
			 0.195203  0.061179 -0.978853
			 0.105793 -0.216222 -0.970596
			 0.216869 -0.089772 -0.972064
			-0.127613 -0.161503 -0.978587
			 0.254597 -0.314511 -0.914474
			 0.253898 -0.466346 -0.847383
			 0.210720 -0.007604 -0.977517
			 0.208438  0.059215 -0.976241
			 0.205787  0.166133 -0.964392
			 0.213232  0.305434 -0.928031
			 0.215040  0.417445 -0.882892
			 0.215154  0.472834 -0.854480
			 0.204545  0.706556 -0.677451
			 0.213656  0.575785 -0.789191
			 0.219338  0.495197 -0.840637
			 0.220125  0.660572 -0.717767
			 0.222715  0.850615 -0.476290
			 0.217070  0.974313  0.059951
			 0.203669  0.978285 -0.038436
			 0.204220  0.975256 -0.084670
			 0.222049  0.943023 -0.247792
			 0.158756  0.974341  0.159549
			 0.194050  0.971563  0.135683
			 0.118429  0.950168  0.288366
			 0.137196  0.922295  0.361315
			 0.032209  0.822806  0.567408
			 0.065536  0.894340  0.442563
			 0.198859  0.969006  0.146570
			 0.180895  0.955197  0.234256
			 0.218569  0.966460  0.134844
			 0.094278 -0.252418  0.963014
			 0.049336 -0.016170  0.998651
			-0.114657 -0.192536  0.974568
			-0.533657 -0.137057  0.834521
			 0.022209  0.220029  0.975241
			 0.024220  0.364416  0.930921
			-0.019483  0.302521  0.952944
			 0.023102  0.102260  0.994489
			 0.043730 -0.692132  0.720445