<?xml version="1.0"?>
<VTKFile type="PolyData" version="0.1" byte_order="LittleEndian" compressor="vtkZLibDataCompressor">
	<PolyData>
		<Piece NumberOfPoints="21247" NumberOfVerts="0" NumberOfLines="0" NumberOfStrips="0" NumberOfPolys="42838">
		<PointData Normals="Normals">
		<DataArray type="Float32" Name="Normals" NumberOfComponents="3" format="ascii">
			 0.770650 -0.266552 -0.578834
			 0.672581 -0.613310 -0.414107
			 0.662523 -0.744170 -0.085290
			 0.489181 -0.514669 -0.704144
			 0.452544 -0.624717 -0.636343
			 0.751095 -0.657993 -0.053870
			 0.302697 -0.924221 -0.232787
			 0.115597 -0.976806 -0.180241
			 0.294446 -0.922047 -0.251260
			 0.567873 -0.809391  0.149689
			 0.173234 -0.723576 -0.668152
			 0.094291 -0.976919 -0.191671
			 0.095602 -0.977614 -0.187433
			 0.610345 -0.783286  0.118079
			 0.834816 -0.478303  0.272598
			-0.028329 -0.711470 -0.702145
			 0.279849 -0.911500 -0.301417
			 0.121151 -0.861203 -0.493610
			 0.188440 -0.980490 -0.055945
			 0.215591 -0.940456 -0.262798
			 0.056199 -0.986539 -0.153568
			-0.007283 -0.984115 -0.177382
			-0.010470 -0.988657 -0.149825
			 0.017018 -0.991477 -0.129163
			 0.125377 -0.949039 -0.289146
			 0.498140 -0.853192 -0.154661
			 0.094339 -0.975870 -0.196920
			 0.538135 -0.663326 -0.520009
			 0.347750 -0.467841 -0.812524
			 0.092357 -0.977400 -0.190156
			 0.508249 -0.835398  0.209268
			 0.091830 -0.978034 -0.187128
			 0.720518 -0.672969  0.167230
			 0.330093 -0.630477 -0.702522
			 0.207225 -0.916843 -0.341258
			 0.005275 -0.915355 -0.402612
			 0.119300 -0.889179 -0.441734
			 0.078706 -0.969610 -0.231650
			 0.099842 -0.971574 -0.214650
			 0.190502 -0.949570 -0.249050
			 0.174804 -0.912457 -0.369954
			 0.256665 -0.942059 -0.215981
			 0.280281 -0.951009 -0.130477
			 0.268470 -0.953797 -0.134886
			 0.251703 -0.957384 -0.141638
			 0.167448 -0.928174 -0.332346
			 0.092582 -0.919677 -0.381605
			 0.205810 -0.949020 -0.238752
			 0.089625 -0.974840 -0.204093
			 0.088686 -0.976631 -0.195770
			 0.141122 -0.575071 -0.805840
			 0.089771 -0.977644 -0.190142
			 0.417678 -0.898929  0.132182
			 0.093912 -0.979077 -0.180522
			 0.272429 -0.812634  0.515178
			 0.245387 -0.768953  0.590336
			 0.093452 -0.977352 -0.189870
			 0.410198 -0.696505 -0.588743
			 0.282070 -0.465037 -0.839153
			 0.028402 -0.974581 -0.222228
			 0.038643 -0.927628 -0.371502
			 0.018191 -0.946078 -0.323428
			 0.298572 -0.851692 -0.430670
			 0.303319 -0.911683 -0.277183
			 0.127603 -0.975720 -0.178014
			 0.293156 -0.925928 -0.238153
			 0.387548 -0.830480 -0.400136
			 0.276388 -0.819069 -0.502729
			 0.310093 -0.927194 -0.210128
			 0.310241 -0.947175 -0.081300
			 0.365333 -0.919160 -0.147232
			 0.328736 -0.931259 -0.157126
			 0.262180 -0.919285 -0.293557
			 0.254816 -0.966529 -0.029831
			 0.279845 -0.955086 -0.097453
			 0.158915 -0.952073 -0.261349
			 0.046047 -0.951364 -0.304609
			-0.018531 -0.865547 -0.500485
			 0.083810 -0.976977 -0.196194
			-0.296307 -0.580162 -0.758692
			 0.086939 -0.977027 -0.194577
			 0.071748 -0.979662 -0.187391
			 0.094617 -0.978595 -0.182756
			 0.312579 -0.918014  0.244019
			 0.353944 -0.679810  0.642325
			 0.032367 -0.999460 -0.005602
			 0.089755 -0.977364 -0.191581
			 0.072120 -0.868545 -0.490335
			-0.040999 -0.789523 -0.612350
			-0.011039 -0.988911 -0.148099
			-0.031260 -0.993310 -0.111166
			 0.032692 -0.995695 -0.086735
			 0.158677 -0.971851 -0.174147
			 0.117135 -0.950284 -0.288512
			 0.216890 -0.964087 -0.153280
			 0.265980 -0.921818 -0.281967
			 0.405102 -0.857696 -0.316621
			 0.393860 -0.880281 -0.264538
			 0.486307 -0.675075 -0.554778
			 0.320848 -0.790056 -0.522368
			 0.318115 -0.899559 -0.299325
			 0.190326 -0.976576 -0.100372
			 0.153491 -0.980179 -0.125255
			 0.070854 -0.968250 -0.239732
			 0.032381 -0.939905 -0.339898
			 0.102477 -0.981283 -0.163039
			 0.126085 -0.988316  0.085636
			 0.269670 -0.957849  0.099011
			 0.412155 -0.910922  0.018723
			 0.268884 -0.960981 -0.064944
			 0.126534 -0.973756 -0.189177
			 0.076253 -0.976885 -0.199700
			-0.265185 -0.752467 -0.602885
			-0.296008 -0.496628 -0.815929
			-0.378224 -0.558405 -0.738330
			-0.383927 -0.875024 -0.294843
			 0.079986 -0.976908 -0.198126
			 0.011947 -0.964443 -0.264020
			 0.088800 -0.979622 -0.180151
			 0.087928 -0.980742 -0.174396
			 0.129907 -0.832278  0.538923
			 0.368752 -0.928461  0.044517
			 0.284917 -0.896056  0.340449
			 0.053330 -0.948298 -0.312869
			 0.081900 -0.977787 -0.192939
			 0.017120 -0.958260 -0.285384
			-0.070455 -0.927740 -0.366518
			 0.156970 -0.943403 -0.292149
			 0.071366 -0.988983 -0.129690
			 0.099388 -0.994703 -0.026226
			-0.022918 -0.999074 -0.036420
			 0.010654 -0.972608 -0.232209
			-0.027902 -0.960446 -0.277065
			 0.139442 -0.985987  0.091577
			 0.342114 -0.877664 -0.335654
			 0.461554 -0.820707 -0.336761
			 0.309909 -0.881687 -0.355787
			 0.660751 -0.735765 -0.148519
			 0.399240 -0.458011 -0.794250
			 0.703415 -0.493138 -0.511882
			 0.394324 -0.293933 -0.870696
			 0.401589 -0.572503 -0.714820
			 0.615842 -0.664234 -0.423712
			 0.287107 -0.934597 -0.209998
			 0.193064 -0.940647 -0.279122
			-0.004133 -0.953605 -0.301031
			 0.045297 -0.961878 -0.269701
			 0.076614 -0.993351 -0.085926
			 0.118680 -0.986191  0.115507
			 0.252500 -0.843229  0.474561
			 0.358274 -0.902061  0.240676
			 0.408758 -0.906296  0.107444
			 0.310529 -0.941446  0.131347
			 0.183882 -0.977938  0.099122
			-0.582318 -0.710507 -0.395077
			-0.044124 -0.883316 -0.466697
			-0.457957 -0.347659 -0.818174
			-0.593573 -0.633798 -0.495955
			-0.171138 -0.775049 -0.608285
			-0.014560 -0.997498 -0.069186
			-0.117256 -0.973903 -0.194330
			 0.080957 -0.995402  0.051184
			 0.084764 -0.979772 -0.181279
			 0.085493 -0.980818 -0.175180
			 0.025631 -0.906661  0.421082
			 0.053048 -0.836845  0.544863
			 0.198348 -0.938729 -0.281862
			 0.056179 -0.985730 -0.158684
			 0.084773 -0.996395  0.003160
			 0.081234 -0.977480 -0.194768
			-0.043347 -0.959107 -0.279706
			 0.062902 -0.953668 -0.294212
			 0.206821 -0.857885 -0.470382
			 0.168336 -0.882542 -0.439070
			 0.126916 -0.900328 -0.416296
			-0.032722 -0.929986 -0.366134
			-0.116783 -0.945824 -0.302951
			 0.025194 -0.960971 -0.275500
			 0.117747 -0.970402 -0.210846
			 0.170700 -0.829191  0.532263
			 0.325760 -0.838153 -0.437470
			 0.475901 -0.813769 -0.333614
			 0.705662 -0.595722 -0.383609
			 0.668733 -0.715883 -0.200767
			 0.269800 -0.610065 -0.745003
			 0.437871 -0.707715 -0.554444
			 0.727202 -0.678555  0.103636
			 0.244811 -0.846958 -0.471943
			 0.257511 -0.389981 -0.884083
			 0.337937 -0.557257 -0.758461
			 0.628966 -0.461492 -0.625641
			 0.798783 -0.557967 -0.224985
			 0.617084 -0.701946 -0.355640
			 0.788329 -0.599085 -0.140125
			 0.655214 -0.627203 -0.421082
			 0.269003 -0.873559 -0.405626
			 0.213830 -0.936943 -0.276432
			 0.186910 -0.979370 -0.076810
			 0.135456 -0.983565  0.119377
			 0.164927 -0.829157  0.534132
			 0.140087 -0.802855  0.579482
			 0.227559 -0.575425  0.785559
			 0.446376 -0.717148  0.535208
			 0.476975 -0.831586  0.284535
			 0.427665 -0.776358  0.463002
			 0.464594 -0.652560  0.598597
			 0.276693 -0.925580  0.258345
			 0.161729 -0.948757  0.271486
			-0.646963 -0.611322 -0.455768
			 0.082222 -0.976695 -0.198259
			-0.056913 -0.730255 -0.680800
			-0.394705 -0.473356 -0.787491
			-0.240342 -0.701502 -0.670918
			 0.069109 -0.923640 -0.376978
			-0.171393 -0.962171 -0.211781
			 0.251984 -0.956075 -0.149749
			 0.034139 -0.922746 -0.383895
			 0.166634 -0.967009 -0.192682
			 0.104084 -0.960384  0.258513
			 0.083730 -0.979463 -0.183417
			 0.011408 -0.952703  0.303689
			 0.042128 -0.827718  0.559561
			 0.065203 -0.991161 -0.115533
			 0.172084 -0.985068 -0.005277
			 0.072240 -0.995801 -0.056235
			 0.090341 -0.960688  0.262521
			 0.147774 -0.987619 -0.052639
			-0.010922 -0.977069 -0.212642
			 0.151438 -0.648048 -0.746392
			 0.174580 -0.819689 -0.545556
			 0.129500 -0.816251 -0.562995
			 0.065246 -0.813656 -0.577673
			 0.097629 -0.888815 -0.447747
			 0.123908 -0.962791 -0.240168
			 0.149899 -0.972884 -0.176145
			 0.129016 -0.968506 -0.212960
			 0.180507 -0.577206  0.796398
			 0.682929 -0.590877 -0.429502
			 0.351822 -0.576273 -0.737652
			 0.719733 -0.529474 -0.449045
			 0.781606 -0.531979 -0.325716
			 0.790425 -0.453990 -0.411244
			 0.613885 -0.344760 -0.710131
			 0.506583 -0.751652 -0.422365
			 0.335160 -0.438086 -0.834115
			 0.148574 -0.977141  0.152057
			-0.149526 -0.950146 -0.273615
			 0.328655 -0.857277 -0.396311
			 0.882687 -0.431426 -0.186374
			 0.403800 -0.870958 -0.279959
			 0.421149 -0.904278 -0.070100
			 0.420215 -0.897379 -0.134646
			 0.459007 -0.386933 -0.799747
			 0.701767 -0.180435 -0.689178
			 0.570335 -0.556845 -0.603856
			 0.347650 -0.892270 -0.288086
			 0.306992 -0.942370 -0.133019
			 0.235750 -0.913356  0.331967
			 0.228416 -0.760351  0.608023
			 0.257234 -0.611675  0.748121
			 0.301063 -0.939264  0.164754
			 0.209924 -0.977085  0.035177
			 0.122206 -0.962896  0.240617
			 0.236836 -0.960939 -0.143197
			 0.362796 -0.684667  0.632147
			 0.324536 -0.906264  0.270855
			 0.518974 -0.697360  0.494324
			 0.242525 -0.790033  0.563054
			 0.079477 -0.841438  0.534478
			 0.083779 -0.979190 -0.184847
			 0.080665 -0.976739 -0.198681
			-0.330566 -0.341963 -0.879652
			-0.158165 -0.599051 -0.784934
			-0.108281 -0.336246 -0.935529
			 0.217832 -0.959897 -0.176487
			 0.008506 -0.880191 -0.474543
			 0.246438 -0.946510 -0.208297
			 0.231448 -0.956541 -0.177375
			 0.164665 -0.962190 -0.216971
			 0.224679 -0.958446 -0.175785
			 0.168967 -0.910060 -0.378472
			-0.073121 -0.888074  0.453849
			 0.008182 -0.918660  0.394965
			 0.211871 -0.960077 -0.182653
			 0.114485 -0.980054 -0.162445
			 0.157299 -0.942531  0.294775
			 0.146964 -0.960119  0.237852
			 0.036657 -0.755603  0.654003
			 0.091990 -0.955276 -0.281043
			 0.138074 -0.986397 -0.089202
			 0.206392 -0.478409 -0.853538
			-0.099546 -0.436810 -0.894029
			-0.004374 -0.312342 -0.949960
			 0.082633 -0.461703 -0.883177
			 0.084717 -0.475446 -0.875656
			 0.349076 -0.478772 -0.805558
			 0.211060 -0.882100 -0.421134
			 0.459958 -0.536519 -0.707521
			 0.159598 -0.892512 -0.421842
			 0.077526 -0.895277 -0.438712
			 0.063731 -0.886030 -0.459227
			 0.136202 -0.979733  0.146878
			 0.738083 -0.467175 -0.486807
			 0.844457 -0.290380 -0.450079
			 0.174523 -0.397593 -0.900812
			 0.414650 -0.462158 -0.783885
			 0.735506 -0.615334 -0.283540
			 0.297366 -0.868740 -0.396062
			 0.288581 -0.854681 -0.431557
			 0.374821 -0.867166 -0.327921
			 0.014708 -0.986182 -0.165014
			 0.045475 -0.980783 -0.189731
			 0.371380 -0.905159 -0.206795
			 0.509081 -0.517629 -0.687675
			 0.156056 -0.950047 -0.270290
			 0.234850 -0.969723 -0.066947
			 0.190883 -0.957437 -0.216513
			 0.100082 -0.869436 -0.483803
			 0.714345 -0.554706 -0.426629
			 0.492971 -0.558286 -0.667306
			 0.696466 -0.699782 -0.158873
			 0.580162 -0.672463  0.459571
			 0.419889 -0.669731  0.612498
			 0.074293 -0.992456  0.097532
			 0.167760 -0.950405 -0.261892
			 0.257423 -0.934022  0.247662
			 0.177611 -0.974780  0.135124
			 0.096137 -0.992452 -0.076139
			 0.250379 -0.824962  0.506703
			 0.441781 -0.607327  0.660291
			 0.259669 -0.961931  0.085209
			 0.268034 -0.902150  0.338057
			 0.070344 -0.720774  0.689591
			 0.268647 -0.841077  0.469488
			 0.086485 -0.787251  0.610537
			 0.043247 -0.814620  0.578381
			 0.078008 -0.979856 -0.183840
			-0.537429 -0.758730 -0.368102
			-0.257183 -0.581524 -0.771808
			 0.165277 -0.934049 -0.316601
			 0.199731 -0.937948 -0.283481
			 0.225646 -0.973438 -0.038760
			-0.124319 -0.954620 -0.270637
			 0.029933 -0.941714 -0.335081
			-0.088007 -0.955091 -0.282943
			 0.044058 -0.987895 -0.148736
			 0.046994 -0.979727 -0.194745
			 0.183790 -0.958428  0.218260
			 0.029847 -0.985324  0.168066
			-0.225329 -0.864530  0.449239
			-0.454547 -0.687180  0.566719
			 0.078682 -0.970411 -0.228282
			 0.137454 -0.989162 -0.051619
			 0.079733 -0.966668  0.243303
			 0.097396 -0.780044  0.618098
			 0.155461 -0.797555  0.582870
			 0.027661 -0.827846  0.560273
			 0.052207 -0.691336  0.720645
			-0.045821 -0.889031 -0.455548
			-0.002361 -0.953857 -0.300254
			-0.003160 -0.157195 -0.987563
			 0.003247 -0.415062 -0.909787
			-0.246546 -0.382131 -0.890613
			 0.012130 -0.054584 -0.998436
			 0.273587  0.033080 -0.961278
			 0.297829 -0.232150 -0.925961
			 0.155144 -0.352993 -0.922674
			 0.053530 -0.385904 -0.920984
			 0.000590 -0.416406 -0.909179
			 0.111454 -0.991780 -0.062854
			 0.535391 -0.721726 -0.438712
			 0.212049 -0.393804 -0.894401
			 0.249296 -0.421666 -0.871808
			 0.405677 -0.552418 -0.728190
			 0.375196 -0.903495 -0.207180
			 0.508205 -0.732643 -0.452727
			 0.473820 -0.708404 -0.523123
			 0.304153 -0.792893 -0.528026
			 0.146723 -0.890660 -0.430345
			 0.255606 -0.960004 -0.114274
			 0.126417 -0.977649 -0.167989
			 0.060306 -0.972155 -0.226449
			 0.031023 -0.997891 -0.057012
			 0.047883 -0.983535 -0.174261
			 0.223850 -0.853743 -0.470121
			 0.285616 -0.825337 -0.487075
			 0.811959 -0.422573 -0.402684
			 0.550384 -0.771287 -0.319676
			 0.887007 -0.447966  0.112007
			 0.703174 -0.417285  0.575690
			 0.838273 -0.493747  0.231328
			 0.239774 -0.875546 -0.419437
			 0.101263 -0.992479  0.068784
			 0.113455 -0.566618  0.816133
			 0.259253 -0.582171  0.770627
			 0.162362 -0.691978  0.703424
			 0.183866 -0.687727  0.702300
			 0.539221 -0.555020  0.633398
			 0.194246 -0.552474  0.810581
			 0.268168 -0.851719  0.450179
			 0.199843 -0.761365  0.616755
			 0.208667 -0.884106  0.418109
			 0.138372 -0.878778  0.456730
			 0.065391 -0.876648  0.476667
			-0.016864 -0.857777  0.513745
			-0.520362 -0.850123  0.080709
			-0.656030 -0.567388 -0.497690
			-0.807784 -0.583536 -0.083494
			 0.099636 -0.978639 -0.179830
			-0.246926 -0.892694 -0.376995
			 0.122649 -0.981702 -0.145665
			-0.158751 -0.874524 -0.458263
			-0.056529 -0.901975 -0.428072
			-0.550757 -0.808894 -0.205807
			-0.291564 -0.878404 -0.378678
			-0.208113 -0.975634 -0.069476
			-0.088941 -0.930094 -0.356390
			-0.107803 -0.983463 -0.145532
			 0.174946 -0.975732 -0.131688
			 0.149179 -0.985784  0.077297
			-0.425206 -0.866950  0.259996
			-0.062610 -0.991933 -0.110225
			 0.009758 -0.999333  0.035185
			 0.048551 -0.959549  0.277325
			 0.027390 -0.775437  0.630831
			 0.046154 -0.579690  0.813529
			-0.090715 -0.828229  0.552999
			-0.207522 -0.411906  0.887281
			-0.086967 -0.433144  0.897119
			-0.223969 -0.349368 -0.909824
			-0.483946 -0.431400 -0.761374
			-0.314480 -0.560333 -0.766244
			-0.318533  0.118256 -0.940506
			 0.119325 -0.006612 -0.992833
			-0.149878  0.059968 -0.986884
			-0.364707  0.207731 -0.907655
			-0.464390  0.273876 -0.842220
			 0.041836  0.297049 -0.953945
			 0.042122  0.162348 -0.985834
			 0.014030  0.204073 -0.978855
			 0.052934  0.271129 -0.961086
			 0.016395  0.347598 -0.937500
			 0.031928  0.361803 -0.931708
			 0.010584  0.285223 -0.958403
			 0.511795 -0.707934 -0.486720
			 0.141294 -0.090777 -0.985797
			 0.276200 -0.205437 -0.938887
			 0.465728 -0.559910 -0.685272
			 0.550903 -0.650710 -0.522572
			 0.590666 -0.621563 -0.514562
			 0.419519 -0.612928 -0.669569
			 0.215744 -0.740306 -0.636711
			 0.246789 -0.853217 -0.459473
			 0.261537 -0.948768 -0.177308
			 0.105880 -0.954721 -0.278024
			 0.327293 -0.910274 -0.253536
			 0.241872 -0.955097 -0.171138
			 0.107142 -0.989968 -0.092106
			 0.267687 -0.938480 -0.218172
			 0.492941 -0.800093 -0.341848
			 0.583921 -0.795822 -0.160325
			 0.747729 -0.656331  0.100654
			 0.568813 -0.752517  0.331917
			 0.584051 -0.546929  0.599794
			 0.455256 -0.448937  0.768894
			 0.450576 -0.421267 -0.787093
			 0.784429 -0.484574 -0.387117
			 0.005259 -0.875934 -0.482403
			 0.038307 -0.399199 -0.916064
			 0.135549 -0.979197  0.150997
			 0.110796 -0.645465  0.755711
			 0.049053 -0.631932  0.773470
			 0.402578  0.399094  0.823805
			 0.738218 -0.673003 -0.045842
			 0.064978 -0.062242  0.995944
			-0.228037  0.053700  0.972171
			-0.324238 -0.085799  0.942076
			-0.008021 -0.977976  0.208562
			 0.317933  0.285041  0.904251
			 0.053657 -0.097726  0.993766
			 0.046707 -0.047040  0.997800
			 0.131220 -0.949387  0.285386
			 0.054738 -0.113852  0.991989
			-0.102686 -0.272659  0.956615
			 0.071269 -0.384027  0.920567
			 0.009751 -0.371705  0.928300
			-0.063826 -0.382521  0.921740
			-0.158564 -0.464775  0.871115
			-0.419966 -0.797158 -0.433782
			-0.434810 -0.897107 -0.078352
			-0.101300 -0.969947 -0.221226
			-0.096646 -0.994602 -0.037777
			-0.172654 -0.948640 -0.265089
			-0.131775 -0.853931 -0.503425
			-0.393529 -0.628765 -0.670663
			-0.877591 -0.456478 -0.146497
			-0.602703 -0.656664 -0.453367
			-0.807949 -0.376757 -0.453070
			-0.741531 -0.397502 -0.540485
			-0.435987 -0.681455  0.587821
			-0.469463 -0.772432 -0.427730
			 0.047135 -0.995378  0.083668
			-0.048542 -0.965058  0.257502
			-0.096952 -0.977875  0.185368
			-0.186449 -0.959674 -0.210389
			-0.178626 -0.980044 -0.087220
			-0.020976 -0.949041  0.314455
			-0.003866 -0.762479  0.647002
			-0.063438 -0.547708  0.834261
			-0.067831 -0.404655  0.911950
			-0.090960  0.017879  0.995694
			 0.012443 -0.184749  0.982707
			-0.084082 -0.239127  0.967341
			 0.077047 -0.296436  0.951940
			-0.145363  0.071203 -0.986813
			-0.380314 -0.032220 -0.924296
			 0.098945 -0.196271 -0.975545
			-0.353763  0.751823 -0.556429
			-0.174715  0.312877 -0.933586
			-0.066796  0.440196 -0.895414
			-0.334359  0.487799 -0.806385
			-0.533402  0.567472 -0.627262
			 0.546461  0.757763 -0.356617
			 0.826241  0.074953 -0.558307
			-0.275527  0.123816 -0.953286
			-0.310611  0.561018 -0.767320
			-0.078526  0.473532 -0.877269
			 0.165770  0.473823 -0.864877
			 0.631354  0.105782 -0.768247
			 0.146559  0.084106 -0.985620
			-0.088790 -0.086399 -0.992296
			 0.269880 -0.066639 -0.960585
			 0.333500  0.029534 -0.942287
			 0.419052 -0.234461 -0.877168
			 0.572712 -0.324606 -0.752750
			 0.692507 -0.459723 -0.555958
			 0.742304 -0.413801 -0.527024
			 0.465507 -0.390226 -0.794372
			 0.207915 -0.468009 -0.858918
			 0.214433 -0.733703 -0.644747
			 0.336931 -0.823617 -0.456215
			 0.316237 -0.871213 -0.375476
			 0.367275 -0.853619 -0.369383
			 0.516208 -0.812319 -0.271415
			 0.488891 -0.841166 -0.231141
			 0.431588 -0.884847 -0.175434
			 0.492446 -0.869345 -0.041668
			 0.548547 -0.822384 -0.150932
			 0.665205 -0.741029 -0.091535
			 0.581267 -0.762839  0.283207
			 0.399789 -0.564542  0.722122
			 0.653860 -0.580697  0.485034
			 0.297539 -0.691691  0.658053
			 0.023344 -0.971938 -0.234077
			 0.043091 -0.956147 -0.289701
			-0.265886 -0.456224 -0.849214
			 0.140127 -0.961952  0.234546
			 0.252350 -0.597755  0.760926
			 0.346693 -0.906034  0.242704
			-0.063490  0.810758  0.581928
			 0.081658 -0.037969  0.995937
			 0.067951  0.907939  0.413556
			 0.310329  0.470708  0.825911
			-0.029587  0.555212  0.831182
			-0.150214  0.249364  0.956689
			-0.616457 -0.001172  0.787387
			 0.072154 -0.972207  0.222727
			-0.331618  0.760965  0.557640
			 0.067330 -0.013186  0.997644
			-0.073507  0.970075  0.231410
			 0.042281  0.819310  0.571790
			-0.015968  0.939528  0.342100
			-0.041983  0.865354  0.499399
			 0.020935 -0.141630  0.989698
			-0.316624  0.048035  0.947334
			 0.023950  0.088280  0.995808
			-0.032266  0.104062  0.994047
			-0.052664  0.093321  0.994242
			-0.286049 -0.893741 -0.345546
			-0.236526 -0.935021 -0.264179
			-0.120309 -0.809654 -0.574445
			-0.034850 -0.962101 -0.270456
			 0.025830 -0.999496 -0.018452
			-0.114342 -0.987249 -0.110752
			-0.183138 -0.486048 -0.854528
			-0.320529 -0.521373 -0.790842
			-0.321638 -0.342945 -0.882575
			-0.781542 -0.378280  0.496081
			-0.751555 -0.130534 -0.646627
			-0.587988 -0.263033 -0.764908
			-0.703894 -0.423139 -0.570514
			-0.265382 -0.386619 -0.883231
			 0.030611 -0.526831  0.849419
			 0.249748 -0.489576  0.835429
			 0.203873 -0.581990  0.787225
			-0.352494 -0.793130  0.496682
			-0.093951 -0.571935 -0.814901
			-0.528631 -0.848487 -0.024859
			-0.064322 -0.936442  0.344874
			-0.146279 -0.916924  0.371286
			-0.188553 -0.917940  0.349046
			-0.223794 -0.941809  0.250822
			-0.121851 -0.953248 -0.276532
			-0.224842 -0.974314  0.012558
			-0.057857 -0.707484  0.704357
			-0.046267 -0.525815  0.849340
			 0.043759 -0.426162  0.903588
			 0.269159 -0.314118  0.910430
			 0.121997 -0.139941  0.982615
			 0.046714 -0.079584  0.995733
			 0.195182 -0.175960  0.964853
			 0.096944 -0.360942  0.927536
			 0.159875 -0.379181  0.911407
			 0.378065  0.030614 -0.925273
			 0.112043  0.145006 -0.983066
			 0.279795 -0.365349 -0.887826
			 0.468165  0.034054 -0.882984
			-0.630325  0.537682 -0.559990
			-0.691024  0.171833 -0.702111
			-0.149302  0.789880 -0.594810
			-0.320092 -0.210777 -0.923642
			-0.238400 -0.108357 -0.965103
			-0.236410  0.017411 -0.971497
			-0.644221 -0.097245 -0.758632
			 0.646974  0.671137 -0.361940
			-0.351565 -0.440694 -0.825948
			 0.229605 -0.808402 -0.542003
			 0.666933  0.388659 -0.635724
			 0.267031 -0.870091  0.414289
			-0.533565 -0.139396 -0.834193
			 0.868628  0.172653 -0.464409
			-0.786910  0.106092 -0.607879
			-0.963356 -0.266755  0.028055
			-0.740224  0.345266 -0.576940
			-0.748757  0.183728 -0.636873
			 0.044914  0.687471 -0.724822
			 0.132586  0.343555 -0.929726
			 0.348965  0.444979 -0.824752
			 0.312470  0.324288 -0.892861
			 0.235564 -0.395494 -0.887747
			 0.932773 -0.058484 -0.355690
			 0.788115 -0.515772 -0.335939
			 0.793497 -0.380658  0.474828
			-0.113597 -0.187755 -0.975625
			 0.249967 -0.554078 -0.794049
			-0.001250 -0.704443 -0.709760
			 0.487631  0.176483 -0.855026
			 0.990360  0.011706  0.138020
			 0.673861 -0.372171 -0.638279
			 0.641139 -0.118297 -0.758252
			 0.469019  0.080122 -0.879546
			 0.643358 -0.334022 -0.688854
			 0.607068 -0.291053 -0.739430
			 0.241187 -0.400576 -0.883950
			 0.277277 -0.420974 -0.863654
			 0.357952 -0.498301 -0.789663
			 0.313306 -0.749039 -0.583764
			 0.333086 -0.385265 -0.860596
			 0.217065 -0.359569 -0.907520
			 0.394523 -0.783464 -0.480141
			 0.393722 -0.801582 -0.449943
			 0.482609 -0.806556 -0.341404
			 0.794110 -0.558297 -0.240197
			 0.752695 -0.632299 -0.183435
			 0.787332 -0.604997 -0.118689
			 0.793290 -0.581797  0.179452
			 0.853310 -0.504650  0.131113
			 0.859237 -0.509970  0.040524
			 0.877999 -0.477244  0.036833
			 0.839602 -0.528809  0.124216
			 0.416529 -0.691017  0.590761
			 0.334502 -0.934541 -0.121417
			 0.229298 -0.881908 -0.411898
			-0.201382 -0.798222 -0.567704
			 0.050145 -0.800958 -0.596617
			 0.242751 -0.962756 -0.119052
			 0.172927 -0.951187  0.255614
			-0.458244 -0.500103 -0.734785
			 0.146380 -0.614450  0.775258
			 0.348813  0.085549  0.933280
			 0.913535 -0.177090  0.366188
			 0.188517 -0.230960 -0.954526
			-0.090021 -0.910036 -0.404635
			 0.042133 -0.924066  0.379904
			 0.033930 -0.031775  0.998919
			 0.052979 -0.036258  0.997937
			 0.130636 -0.034016  0.990847
			 0.097758 -0.041135  0.994360
			 0.114241 -0.036179  0.992794
			 0.299114  0.241369  0.923186
			-0.069011 -0.011875  0.997545
			 0.351883  0.072665  0.933219
			-0.201479 -0.029181  0.979058
			-0.108478 -0.264081  0.958381
			 0.037820 -0.038138  0.998556
			-0.362670 -0.006024  0.931898
			-0.859291  0.400325  0.318369
			-0.784355  0.580604  0.218374
			-0.312818  0.732712  0.604382
			 0.035101 -0.077827  0.996349
			 0.037544 -0.035252  0.998673
			 0.019729 -0.017014  0.999661
			 0.001086 -0.046678  0.998909
			-0.096214 -0.914852 -0.392160
			-0.046319 -0.927693 -0.370460
			-0.004577 -0.798110 -0.602494
			 0.044348 -0.936276 -0.348454
			 0.096673 -0.995267  0.009898
			 0.202025 -0.968958 -0.142499
			 0.028712 -0.518275 -0.854732
			 0.136726 -0.385401 -0.912563
			 0.635402 -0.642550 -0.428245
			 0.324758 -0.655032 -0.682250
			-0.324008  0.923976  0.203190
			-0.185039  0.276177 -0.943126
			-0.199407 -0.976726  0.079020
			-0.092829 -0.100420  0.990605
			-0.319049 -0.932599 -0.168722
			 0.268296 -0.956453 -0.114960
			-0.106076 -0.698273 -0.707928
			 0.510583 -0.815033  0.273911
			-0.187687 -0.977460  0.096676
			 0.052561 -0.938854  0.340279
			 0.077010 -0.511258 -0.855970
			-0.158349 -0.797090 -0.582729
			-0.151738 -0.741998  0.653004
			-0.217999 -0.751719  0.622410
			-0.288746 -0.776024  0.560725
			-0.237936 -0.901232  0.362169
			-0.274066 -0.917542  0.288104
			-0.159935 -0.972502 -0.169296
			-0.308328 -0.940923  0.139994
			 0.007037 -0.533450  0.845803
			-0.079976 -0.595403  0.799436
			-0.214377 -0.550758  0.806665
			 0.007494 -0.488593  0.872480
			 0.533193 -0.334541  0.777038
			 0.240997 -0.547775  0.801164
			 0.302044 -0.333882  0.892912
			 0.204644 -0.105256  0.973161
			 0.146027 -0.067348  0.986985
			 0.304198  0.086855  0.948641
			 0.164238 -0.166947  0.972190
			 0.208716 -0.043959  0.976988
			 0.117107 -0.221324  0.968143
			 0.230052 -0.214974  0.949138
			 0.106541  0.409917 -0.905879
			-0.081443  0.057952 -0.994992
			-0.433349 -0.165173 -0.885961
			 0.351457 -0.042334 -0.935246
			 0.212424 -0.055645 -0.975592
			 0.320803 -0.092271 -0.942641
			-0.260059  0.097046 -0.960704
			-0.610637 -0.680719 -0.404652
			-0.771612 -0.380054 -0.510073
			-0.437988 -0.702855 -0.560501
			 0.220212  0.268261 -0.937839
			-0.177067 -0.541955 -0.821543
			-0.114309 -0.614251 -0.780787
			-0.201422 -0.725291 -0.658318
			-0.294874 -0.838466 -0.458284
			-0.404522 -0.636647 -0.656538
			-0.801959 -0.443482 -0.400232
			-0.129369 -0.762089 -0.634416
			-0.095461 -0.937326 -0.335123
			-0.158114 -0.982131 -0.102075
			-0.326812 -0.659868 -0.676586
			-0.835024 -0.054657  0.547493
			-0.791603 -0.167874  0.587523
			-0.959397  0.148918 -0.239542
			 0.135834  0.260131 -0.955971
			 0.118771  0.055606 -0.991363
			-0.102562  0.148023 -0.983652
			-0.316864 -0.038493 -0.947690
			-0.867899 -0.399222 -0.295590
			-0.703811 -0.115188  0.700987
			-0.955989 -0.183446  0.228984
			-0.814329 -0.050729  0.578182
			 0.215104  0.045180 -0.975545
			 0.410331  0.083833 -0.908075
			 0.700403 -0.294891 -0.649981
			-0.021993 -0.312208 -0.949759
			 0.833555 -0.296330 -0.466235
			 0.961896 -0.182725 -0.203389
			 0.721502 -0.238795 -0.649933
			-0.400771 -0.300123 -0.865626
			 0.442823 -0.700851 -0.559210
			 0.184089 -0.800396 -0.570506
			 0.039061 -0.839818 -0.541461
			-0.017644 -0.802861 -0.595905
			 0.654485  0.285479  0.700108
			-0.223022  0.099449 -0.969727
			-0.241772  0.652576 -0.718116
			 0.967106 -0.253257  0.023802
			 0.758033 -0.540171 -0.365515
			 0.872124 -0.213300  0.440345
			 0.551703 -0.297356  0.779233
			 0.680931  0.222203  0.697824
			 0.634390  0.174109  0.753150
			 0.559547 -0.065745 -0.826187
			 0.006926 -0.036102 -0.999324
			 0.298685  0.051481 -0.952962
			 0.331034 -0.506299 -0.796290
			 0.285898 -0.167549 -0.943499
			 0.427851 -0.081484 -0.900169
			 0.339542 -0.067614 -0.938157
			 0.347153 -0.433698 -0.831499
			 0.417433 -0.416005 -0.807892
			 0.393465 -0.225545 -0.891243
			 0.503261 -0.433942 -0.747277
			 0.583393 -0.493839 -0.644807
			 0.629107 -0.523759 -0.574371
			 0.806721 -0.463237 -0.366895
			 0.908148 -0.298575 -0.293462
			 0.882050 -0.408677 -0.234458
			 0.938915 -0.211489 -0.271499
			 0.735089 -0.638779 -0.227168
			 0.730295 -0.665443 -0.154453
			 0.754035 -0.656829 -0.002391
			 0.711430 -0.658795 -0.244653
			 0.862826 -0.414364  0.289540
			 0.822093 -0.529552  0.209136
			 0.820409 -0.570832 -0.032880
			 0.526335 -0.794003 -0.304189
			 0.682943 -0.669874 -0.291303
			 0.508038 -0.536821 -0.673588
			 0.033920 -0.424938 -0.904587
			 0.446439 -0.862244 -0.239225
			 0.475996 -0.700454  0.531781
			 0.225241 -0.375348  0.899100
			 0.259320 -0.113916  0.959050
			 0.169055  0.049105  0.984383
			 0.288921 -0.171473  0.941871
			 0.735333 -0.392676 -0.552351
			 0.105741 -0.836238 -0.538076
			 0.210764  0.003993 -0.977529
			 0.099239 -0.866174  0.489789
			 0.055715 -0.477538  0.876843
			 0.057350 -0.027972  0.997962
			 0.249715 -0.038977  0.967534
			 0.137556 -0.020623  0.990279
			 0.120058 -0.030134  0.992309
			 0.087450 -0.032653  0.995634
			 0.098018 -0.026758  0.994825
			 0.102733 -0.008744  0.994671
			 0.123000 -0.047123  0.991287
			 0.107426  0.015684  0.994089
			 0.097146 -0.001393  0.995269
			-0.608029  0.291704  0.738383
			-0.035178 -0.123205  0.991758
			-0.850004  0.223822  0.476862
			-0.421318  0.423642  0.801885
			-0.157418 -0.082723  0.984061
			-0.033902 -0.081007  0.996137
			 0.002801 -0.060127  0.998187
			 0.004799 -0.037352  0.999291
			 0.131658 -0.049432  0.990062
			 0.140396 -0.922662 -0.359143
			-0.114067 -0.969866 -0.215285
			 0.029643 -0.810031 -0.585637
			 0.020451 -0.917745 -0.396642
			 0.138709 -0.981400 -0.132716
			 0.227761 -0.962561 -0.146975
			-0.043593 -0.529246 -0.847348
			 0.110816 -0.551179 -0.826996
			 0.430302 -0.697767 -0.572679
			 0.482813 -0.856588 -0.182067
			 0.519111 -0.734957 -0.436305
			-0.994555  0.087553  0.056531
			 0.278792 -0.956434  0.086651
			-0.093032 -0.855096 -0.510055
			-0.008091 -0.998496 -0.054221
			 0.127265 -0.043115 -0.990931
			 0.014230 -0.632548 -0.774391
			-0.221153 -0.613731  0.757909
			-0.166624 -0.674152  0.719553
			-0.262700 -0.728213  0.633004
			-0.311480 -0.750867  0.582390
			-0.402930 -0.677082  0.615798
			-0.443169 -0.753757  0.485234
			-0.469555 -0.747999  0.469058
			-0.320292 -0.946818  0.030794
			-0.494107 -0.791003  0.360793
			 0.054421 -0.515591  0.855105
			-0.119912 -0.658508  0.742959
			-0.046982 -0.573373  0.817946
			 0.322946 -0.361139  0.874805
			 0.112386 -0.551779  0.826384
			 0.035811 -0.436183  0.899145
			 0.290190  0.051310  0.955592
			 0.104668  0.078223  0.991426
			 0.343053  0.057992  0.937524
			 0.167792  0.114755  0.979120
			 0.186977  0.173115  0.966991
			 0.092683  0.244674  0.965165
			 0.159272 -0.063630  0.985182
			 0.147826  0.099080  0.984038
			 0.076169 -0.125180  0.989206